Title: kicad schematic
Date: Sun Jun 14 12:24:57  2026
Plotname: Transient Analysis
Flags: real
No. Variables: 44
No. Points: 108     
Variables:
	0	time	time
	1	v(net-_qn11-pad2_)	voltage
	2	v(net-_qn11-pad1_)	voltage
	3	v(net-_qn2-pad3_)	voltage
	4	v(net-_qn6-pad2_)	voltage
	5	v(net-_c1-pad2_)	voltage
	6	v(output)	voltage
	7	v(net-_qn9-pad2_)	voltage
	8	v(net-_d2-pad1_)	voltage
	9	v(net-_qn15-pad3_)	voltage
	10	v(net-_qn13-pad1_)	voltage
	11	v(net-_qn8-pad2_)	voltage
	12	v(net-_qn10-pad1_)	voltage
	13	v(net-_qn10-pad3_)	voltage
	14	v(net-_qn1-pad1_)	voltage
	15	v(net-_d1-pad2_)	voltage
	16	v(net-_qn1-pad3_)	voltage
	17	v(net-_qn2-pad1_)	voltage
	18	v(net-_qp1-pad3_)	voltage
	19	v(vin)	voltage
	20	v(net-_qn3-pad1_)	voltage
	21	v(net-_qn2-pad2_)	voltage
	22	v(net-_c1-pad1_)	voltage
	23	v(net-_qn5-pad3_)	voltage
	24	v(net-_qp2-pad3_)	voltage
	25	v(net-_d2-pad2_)	voltage
	26	v(net-_qn7-pad3_)	voltage
	27	v(qp2#collCX)	voltage
	28	v(qp1#collCX)	voltage
	29	v(qn7#collCX)	voltage
	30	v(qn10#collCX)	voltage
	31	v(qn11#collCX)	voltage
	32	v(qn3#collCX)	voltage
	33	v(qn14#collCX)	voltage
	34	v(qn15#collCX)	voltage
	35	v(qn2#collCX)	voltage
	36	v(qn5#collCX)	voltage
	37	v(qn6#collCX)	voltage
	38	v(qn4#collCX)	voltage
	39	v(qn1#collCX)	voltage
	40	v(qn12#collCX)	voltage
	41	v(qn8#collCX)	voltage
	42	v(qn13#collCX)	voltage
	43	v(qn9#collCX)	voltage
Values:
0		0.000000000000000e+00
	4.669054128262962e-16
	4.669054140409969e-16
	5.876333601110289e-16
	5.876332550412406e-16
	5.876332785320282e-16
	7.049117182073623e-24
	6.917498539807186e-24
	7.800661902877402e-24
	7.049742727560475e-24
	-2.902372670503426e-19
	1.381554727277561e-24
	1.222706324718300e-16
	5.034063855503007e-24
	-7.428633043060340e-19
	-7.428634226529607e-19
	8.841726839557357e-24
	1.712137941620154e-15
	-7.428629003954239e-19
	-7.428633049744522e-19
	5.876333567389182e-16
	8.846665538575709e-24
	1.442475277583129e-23
	-1.960912640655787e-14
	-7.428629036947498e-19
	-7.429321669449885e-19
	3.552831392565542e-25
	4.669054140418782e-16
	1.712137941620114e-15
	5.876332785304377e-16
	1.222706324721573e-16
	4.669054140403715e-16
	5.876333567373289e-16
	-7.428633049734151e-19
	-7.428633049724307e-19
	1.712137941615684e-15
	1.712137941637340e-15
	-1.960912640654568e-14
	5.876333601101488e-16
	-7.428633043046971e-19
	1.222706324715026e-16
	-2.902372670509788e-19
	-2.902372670491449e-19
	7.049472522432491e-24
1		1.000000000000000e-10
	4.669054128167176e-16
	4.669054140022311e-16
	5.876333600308754e-16
	5.876332551396048e-16
	5.876332785111977e-16
	7.206723229562961e-24
	7.031812210636753e-24
	7.926825993610107e-24
	7.206546871223359e-24
	-2.902371726987840e-19
	1.402770678262956e-24
	1.222706324637281e-16
	5.024531255973258e-24
	-7.428632229665472e-19
	-7.428633417985850e-19
	8.922271400212171e-24
	1.712137941532911e-15
	-7.428629730100277e-19
	-7.428632037425916e-19
	5.876333567146918e-16
	8.765859259369503e-24
	1.440132442394442e-23
	-1.960912640602113e-14
	-7.428629509420473e-19
	-7.429316382442123e-19
	3.328156239546605e-25
	4.669054140017405e-16
	1.712137941533586e-15
	5.876332785095306e-16
	1.222706324637649e-16
	4.669054140035102e-16
	5.876333567140832e-16
	-7.428632028995192e-19
	-7.428632011585456e-19
	1.712137941529069e-15
	1.712137941544326e-15
	-1.960912640600308e-14
	5.876333600331323e-16
	-7.428632230049951e-19
	1.222706324636913e-16
	-2.902371776231557e-19
	-2.902371696983935e-19
	7.204001649102717e-24
2		2.000000000000001e-10
	4.669054127927341e-16
	4.669054139088247e-16
	5.876333598786115e-16
	5.876332553127154e-16
	5.876332784867398e-16
	7.558426130875851e-24
	7.255751295212743e-24
	8.206303195380463e-24
	7.557248203286892e-24
	-2.902369558560629e-19
	1.453401263526469e-24
	1.222706324484438e-16
	5.010826178251627e-24
	-7.428630583477888e-19
	-7.428631778326860e-19
	9.084626720299968e-24
	1.712137941367309e-15
	-7.428630892947168e-19
	-7.428630282694154e-19
	5.876333566632054e-16
	8.612762482116440e-24
	1.437323283478860e-23
	-1.960912640500487e-14
	-7.428630524570073e-19
	-7.429305590116305e-19
	3.051868381548801e-25
	4.669054139075832e-16
	1.712137941368631e-15
	5.876332784850607e-16
	1.222706324486040e-16
	4.669054139111191e-16
	5.876333566627455e-16
	-7.428630249499261e-19
	-7.428630224279217e-19
	1.712137941363530e-15
	1.712137941371925e-15
	-1.960912640498193e-14
	5.876333598817704e-16
	-7.428630584079456e-19
	1.222706324482836e-16
	-2.902369627975126e-19
	-2.902369526434652e-19
	7.552369075033829e-24
3		4.000000000000002e-10
	4.669054127315736e-16
	4.669054136747778e-16
	5.876333595132486e-16
	5.876332556933073e-16
	5.876332784380319e-16
	8.459866091000831e-24
	7.790800086582278e-24
	8.922327905244516e-24
	8.457376965044709e-24
	-2.902363994957979e-19
	1.582955433994308e-24
	1.222706324122548e-16
	4.983985876204774e-24
	-7.428626874341470e-19
	-7.428628064633923e-19
	9.449663224600202e-24
	1.712137940995839e-15
	-7.428633000555240e-19
	-7.428626944838044e-19
	5.876333565394533e-16
	8.253126694104724e-24
	1.431685077331107e-23
	-1.960912640255484e-14
	-7.428632716234716e-19
	-7.429278601719411e-19
	2.494287275066729e-25
	4.669054136737221e-16
	1.712137940997268e-15
	5.876332784363944e-16
	1.222706324125931e-16
	4.669054136767260e-16
	5.876333565386608e-16
	-7.428626861266984e-19
	-7.428626833915380e-19
	1.712137940990736e-15
	1.712137940991062e-15
	-1.960912640252679e-14
	5.876333595159116e-16
	-7.428626874200477e-19
	1.222706324119166e-16
	-2.902364066094491e-19
	-2.902363971827146e-19
	8.451465375454194e-24
4		8.000000000000003e-10
	4.669054126087136e-16
	4.669054132164758e-16
	5.876333587154862e-16
	5.876332565640418e-16
	5.876332783362308e-16
	1.062179274656270e-23
	9.075422569919389e-24
	1.062904942080847e-23
	1.061867561383780e-23
	-2.902351185272263e-19
	1.872478981057182e-24
	1.222706323308580e-16
	4.930196014875695e-24
	-7.428621191312475e-19
	-7.428622284175676e-19
	1.000735500189256e-23
	1.712137940329733e-15
	-7.428634966330904e-19
	-7.428622637071622e-19
	5.876333562723068e-16
	7.511771591862438e-24
	1.420038639232985e-23
	-1.960912639684933e-14
	-7.428635320104820e-19
	-7.429214910740247e-19
	1.357908582289241e-25
	4.669054132174230e-16
	1.712137940329083e-15
	5.876332783346944e-16
	1.222706323311824e-16
	4.669054132154549e-16
	5.876333562710959e-16
	-7.428622502408984e-19
	-7.428622468804494e-19
	1.712137940321929e-15
	1.712137940317275e-15
	-1.960912639681900e-14
	5.876333587162600e-16
	-7.428621188420957e-19
	1.222706323305336e-16
	-2.902351236188025e-19
	-2.902351162390818e-19
	1.061636442736670e-23
5		1.600000000000001e-09
	4.669054124022016e-16
	4.669054124849206e-16
	5.876333571093112e-16
	5.876332587609836e-16
	5.876332781139337e-16
	1.554890215129913e-23
	1.228992357700641e-23
	1.450268414768479e-23
	1.554643263574986e-23
	-2.902323650121883e-19
	2.450818425066330e-24
	1.222706321550410e-16
	4.813475119959256e-24
	-7.428617191200058e-19
	-7.428617931077973e-19
	1.038528975151242e-23
	1.712137939322203e-15
	-7.428633337765128e-19
	-7.428619293447046e-19
	5.876333557201971e-16
	6.136137953671018e-24
	1.395678406091733e-23
	-1.960912638374218e-14
	-7.428634309173653e-19
	-7.429072269078585e-19
	-9.388434544342794e-26
	4.669054124874282e-16
	1.712137939318770e-15
	5.876332781125377e-16
	1.222706321552815e-16
	4.669054124814548e-16
	5.876333557189182e-16
	-7.428619157506809e-19
	-7.428619111317405e-19
	1.712137939313988e-15
	1.712137939308290e-15
	-1.960912638371174e-14
	5.876333571080939e-16
	-7.428617186995564e-19
	1.222706321548005e-16
	-2.902323684869185e-19
	-2.902323618807728e-19
	1.555003858535972e-23
6		3.200000000000001e-09
	4.669054119862764e-16
	4.669054111216321e-16
	5.876333539418428e-16
	5.876332641983045e-16
	5.876332776245482e-16
	2.618131358155888e-23
	2.022505534814005e-23
	2.310421619586513e-23
	2.617976596939108e-23
	-2.902264230435367e-19
	3.525545265229014e-24
	1.222706317787283e-16
	4.557228643255410e-24
	-7.428616627591253e-19
	-7.428616815444640e-19
	1.031814237945034e-23
	1.712137937440910e-15
	-7.428625386782702e-19
	-7.428616431741580e-19
	5.876333545466841e-16
	3.578196397559062e-24
	1.343903337610602e-23
	-1.960912635420806e-14
	-7.428625963021332e-19
	-7.428771160172601e-19
	-5.491759733328085e-25
	4.669054111225587e-16
	1.712137937438462e-15
	5.876332776231511e-16
	1.222706317789418e-16
	4.669054111199039e-16
	5.876333545456468e-16
	-7.428616350802028e-19
	-7.428616308116408e-19
	1.712137937437240e-15
	1.712137937430815e-15
	-1.960912635417634e-14
	5.876333539398168e-16
	-7.428616627982954e-19
	1.222706317785148e-16
	-2.902264277469865e-19
	-2.902264200532564e-19
	2.618864459686959e-23
7		6.400000000000003e-09
	4.669054108999439e-16
	4.669054078593138e-16
	5.876333477611624e-16
	5.876332768586379e-16
	5.876332765596850e-16
	4.776095370753103e-23
	3.894956983313990e-23
	4.181441838908070e-23
	4.775952087398428e-23
	-2.902135351126198e-19
	5.235565264005766e-24
	1.222706309668779e-16
	4.005967169964437e-24
	-7.428610260902722e-19
	-7.428610611870989e-19
	1.032427111593253e-23
	1.712137932733922e-15
	-7.428611802497033e-19
	-7.428607293947406e-19
	5.876333519376459e-16
	-1.193526161142204e-24
	1.232844860329563e-23
	-1.960912628933975e-14
	-7.428611691216075e-19
	-7.428192861951378e-19
	-1.408235799485056e-24
	4.669054078578183e-16
	1.712137932734195e-15
	5.876332765581830e-16
	1.222706309670899e-16
	4.669054078598851e-16
	5.876333519369598e-16
	-7.428607264154870e-19
	-7.428607237011867e-19
	1.712137932735637e-15
	1.712137932724635e-15
	-1.960912628930507e-14
	5.876333477583381e-16
	-7.428610266836633e-19
	1.222706309666658e-16
	-2.902135417588229e-19
	-2.902135324712163e-19
	4.777339888244660e-23
8		1.280000000000001e-08
	4.669054079952217e-16
	4.669054003687119e-16
	5.876333359425802e-16
	5.876333040196355e-16
	5.876332741919967e-16
	8.909975128062491e-23
	7.961219524537404e-23
	8.095628789191082e-23
	8.909794015491099e-23
	-2.901867624902592e-19
	6.815670907015587e-24
	1.222706291741463e-16
	2.807460262993016e-24
	-7.428586494685990e-19
	-7.428589541849859e-19
	1.033202971548084e-23
	1.712137921241113e-15
	-7.428589050044937e-19
	-7.428583700244163e-19
	5.876333458197728e-16
	-9.272103373647904e-24
	9.870894107538097e-24
	-1.960912615035448e-14
	-7.428588925467378e-19
	-7.427266850989293e-19
	-2.897785713681282e-24
	4.669054003661112e-16
	1.712137921241659e-15
	5.876332741904362e-16
	1.222706291743065e-16
	4.669054003685360e-16
	5.876333458197197e-16
	-7.428583690775798e-19
	-7.428583671642243e-19
	1.712137921245059e-15
	1.712137921226379e-15
	-1.960912615031830e-14
	5.876333359383518e-16
	-7.428586500274874e-19
	1.222706291739861e-16
	-2.901867690871530e-19
	-2.901867602249373e-19
	8.911206913914312e-23
9		2.280000000000001e-08
	4.669054019554988e-16
	4.669053878939074e-16
	5.876333178574361e-16
	5.876333446773903e-16
	5.876332699107460e-16
	1.486730129320637e-22
	1.410085815168488e-22
	1.415614062014567e-22
	1.486711435803696e-22
	-2.901459596701741e-19
	5.645339867479318e-24
	1.222706259706337e-16
	7.154678503971908e-25
	-7.428552178394835e-19
	-7.428559940256820e-19
	8.155874591487134e-24
	1.712137900331285e-15
	-7.428558027370089e-19
	-7.428551892709217e-19
	5.876333339619484e-16
	-1.896678997346722e-23
	5.415057537548805e-24
	-1.960912592166872e-14
	-7.428558065635030e-19
	-7.426444964665070e-19
	-4.703973118768722e-24
	4.669053878901652e-16
	1.712137900331274e-15
	5.876332699091325e-16
	1.222706259706909e-16
	4.669053878921107e-16
	5.876333339628524e-16
	-7.428551900643310e-19
	-7.428551891345212e-19
	1.712137900335738e-15
	1.712137900312717e-15
	-1.960912592163526e-14
	5.876333178525779e-16
	-7.428552178966206e-19
	1.222706259705766e-16
	-2.901459636287349e-19
	-2.901459586809846e-19
	1.486777199282148e-22
10		3.280000000000002e-08
	4.669053939458057e-16
	4.669053745744579e-16
	5.876332995844309e-16
	5.876333801399089e-16
	5.876332649354444e-16
	2.024811377809387e-22
	1.954228853415226e-22
	1.985089646377598e-22
	2.024797378390858e-22
	-2.901083928685449e-19
	1.495969237620155e-24
	1.222706223004866e-16
	-1.607846732082990e-24
	-7.428536596329826e-19
	-7.428546818473483e-19
	2.390322554185456e-24
	1.712137875699092e-15
	-7.428543127666338e-19
	-7.428538390350583e-19
	5.876333192502181e-16
	-2.609293650715779e-23
	2.290817030318340e-25
	-1.960912568285611e-14
	-7.428543179051734e-19
	-7.426313733459844e-19
	-5.845388797403050e-24
	4.669053745692337e-16
	1.712137875699000e-15
	5.876332649338259e-16
	1.222706223004701e-16
	4.669053745720790e-16
	5.876333192517634e-16
	-7.428538411076961e-19
	-7.428538416136526e-19
	1.712137875704138e-15
	1.712137875680638e-15
	-1.960912568282574e-14
	5.876332995795986e-16
	-7.428536592741785e-19
	1.222706223005032e-16
	-2.901083926118535e-19
	-2.901083934018531e-19
	2.024795924344653e-22
11		4.280000000000003e-08
	4.669053834520329e-16
	4.669053598106417e-16
	5.876332808238845e-16
	5.876334085654342e-16
	5.876332592571437e-16
	2.498045292052465e-22
	2.409883900682574e-22
	2.490628792358537e-22
	2.498039689086512e-22
	-2.900759414680999e-19
	-4.183859937328489e-24
	1.222706181827240e-16
	-4.114781706458298e-24
	-7.428557608755412e-19
	-7.428566792784184e-19
	-8.262379786196319e-24
	1.712137845965175e-15
	-7.428563046278395e-19
	-7.428560333121591e-19
	5.876333015497761e-16
	-3.150041476791362e-23
	-5.649417493297440e-24
	-1.960912543488281e-14
	-7.428563077663777e-19
	-7.426772176288074e-19
	-6.204294704107461e-24
	4.669053598038007e-16
	1.712137845965127e-15
	5.876332592555913e-16
	1.222706181826659e-16
	4.669053598083890e-16
	5.876333015515723e-16
	-7.428560356204850e-19
	-7.428560375129146e-19
	1.712137845970985e-15
	1.712137845947766e-15
	-1.960912543485376e-14
	5.876332808192967e-16
	-7.428557603306679e-19
	1.222706181827821e-16
	-2.900759362925396e-19
	-2.900759433641987e-19
	2.498012305957343e-22
12		5.280000000000004e-08
	4.669053699786663e-16
	4.669053428228582e-16
	5.876332612800874e-16
	5.876334289952157e-16
	5.876332529276731e-16
	2.896013420581570e-22
	2.776069400093907e-22
	2.911642657412917e-22
	2.896017770916235e-22
	-2.900500262592715e-19
	-9.822153154998001e-24
	1.222706136855118e-16
	-6.722747329560426e-24
	-7.428633417625493e-19
	-7.428638264039857e-19
	-2.484096385365479e-23
	1.712137809605550e-15
	-7.428637057381610e-19
	-7.428635991168165e-19
	5.876332809810829e-16
	-3.642729841218317e-23
	-1.211996946699189e-23
	-1.960912517875733e-14
	-7.428637085751047e-19
	-7.427615244864073e-19
	-5.776738691922161e-24
	4.669053428144621e-16
	1.712137809605527e-15
	5.876332529261927e-16
	1.222706136854312e-16
	4.669053428210233e-16
	5.876332809828538e-16
	-7.428636008172430e-19
	-7.428636037048949e-19
	1.712137809611762e-15
	1.712137809588860e-15
	-1.960912517872816e-14
	5.876332612761102e-16
	-7.428633412478408e-19
	1.222706136855923e-16
	-2.900500166477724e-19
	-2.900500291322465e-19
	2.895994791519251e-22
13		6.280000000000005e-08
	4.669053531166143e-16
	4.669053229905910e-16
	5.876332404813489e-16
	5.876334407160324e-16
	5.876332460102978e-16
	3.208011832849392e-22
	3.056297057693583e-22
	3.236103444673903e-22
	3.208025493131662e-22
	-2.900314873104961e-19
	-1.424486930010056e-23
	1.222706088861204e-16
	-9.342740172542585e-24
	-7.428777602168410e-19
	-7.428775861774963e-19
	-4.764727292066693e-23
	1.712137765390277e-15
	-7.428779584402524e-19
	-7.428779376409019e-19
	5.876332577617966e-16
	-4.230435803307023e-23
	-1.908479273774853e-23
	-1.960912491545950e-14
	-7.428779625046747e-19
	-7.428605860975313e-19
	-4.706398713426366e-24
	4.669053229809107e-16
	1.712137765390264e-15
	5.876332460088703e-16
	1.222706088860211e-16
	4.669053229890672e-16
	5.876332577633947e-16
	-7.428779385074746e-19
	-7.428779419223389e-19
	1.712137765396177e-15
	1.712137765373807e-15
	-1.960912491542990e-14
	5.876332404783842e-16
	-7.428777598619929e-19
	1.222706088862198e-16
	-2.900314747061702e-19
	-2.900314907065120e-19
	3.208014852754960e-22
14		7.280000000000006e-08
	4.669053326135679e-16
	4.669053001131526e-16
	5.876332179296821e-16
	5.876334431108253e-16
	5.876332385709605e-16
	3.427239215961219e-22
	3.252725846731810e-22
	3.460300630580349e-22
	3.427259975803509e-22
	-2.900205799565556e-19
	-1.694754643120968e-23
	1.222706038621411e-16
	-1.188600086040054e-23
	-7.428995393034272e-19
	-7.428986103648655e-19
	-7.594545494339739e-23
	1.712137712744782e-15
	-7.428996379768962e-19
	-7.428996176462801e-19
	5.876332321576577e-16
	-5.034604047511220e-23
	-2.645467854543291e-23
	-1.960912464565428e-14
	-7.428996436850962e-19
	-7.429537542900925e-19
	-3.235761601659488e-24
	4.669053001026773e-16
	1.712137712744769e-15
	5.876332385695704e-16
	1.222706038620250e-16
	4.669053001115534e-16
	5.876332321589973e-16
	-7.428996180469345e-19
	-7.428996215977683e-19
	1.712137712749729e-15
	1.712137712728146e-15
	-1.960912464562457e-14
	5.876332179278408e-16
	-7.428995391467416e-19
	1.222706038622572e-16
	-2.900205662173637e-19
	-2.900205834908291e-19
	3.427255881007264e-22
15		8.280000000000007e-08
	4.669053084254834e-16
	4.669052744958941e-16
	5.876331934035641e-16
	5.876334358502698e-16
	5.876332306953414e-16
	3.553150492263600e-22
	3.366827669463171e-22
	3.587251776604372e-22
	3.553175455014930e-22
	-2.900170582591115e-19
	-1.808790961103509e-23
	1.222705987038817e-16
	-1.425681892095990e-23
	-7.429282408808457e-19
	-7.429265739243974e-19
	-1.079573878037915e-22
	1.712137651909923e-15
	-7.429283232070758e-19
	-7.429282308816313e-19
	5.876332045169513e-16
	-6.113696343509526e-23
	-3.411422551328917e-23
	-1.960912436946456e-14
	-7.429283301502338e-19
	-7.430274669849704e-19
	-1.615289772748820e-24
	4.669052744852748e-16
	1.712137651909908e-15
	5.876332306939981e-16
	1.222705987037580e-16
	4.669052744937818e-16
	5.876332045179485e-16
	-7.429282315188881e-19
	-7.429282349543943e-19
	1.712137651913651e-15
	1.712137651892853e-15
	-1.960912436943515e-14
	5.876331934025620e-16
	-7.429282409008441e-19
	1.222705987040053e-16
	-2.900170451122427e-19
	-2.900170616831321e-19
	3.553170230463809e-22
16		9.280000000000008e-08
	4.669052807350587e-16
	4.669052468469824e-16
	5.876331671562354e-16
	5.876334191055169e-16
	5.876332225130972e-16
	3.591371951814773e-22
	3.402144178113613e-22
	3.624735777850089e-22
	3.591398281877548e-22
	-2.900202895087280e-19
	-1.826260399611365e-23
	1.222705935322942e-16
	-1.634183957809061e-23
	-7.429625823076115e-19
	-7.429602760569778e-19
	-1.411220495181170e-22
	1.712137583865363e-15
	-7.429627235659929e-19
	-7.429625071768279e-19
	5.876331753164449e-16
	-7.443644682719817e-23
	-4.188857836787359e-23
	-1.960912408642500e-14
	-7.429627309825626e-19
	-7.430765830287685e-19
	-2.881462326201889e-26
	4.669052468369298e-16
	1.712137583865343e-15
	5.876332225118224e-16
	1.222705935321822e-16
	4.669052468440981e-16
	5.876331753169989e-16
	-7.429625087509314e-19
	-7.429625119541296e-19
	1.712137583868005e-15
	1.712137583847686e-15
	-1.960912408639602e-14
	5.876331671555628e-16
	-7.429625824578731e-19
	1.222705935324063e-16
	-2.900202781808913e-19
	-2.900202927058715e-19
	3.591388526114326e-22
17		1.028000000000001e-07
	4.669052499353131e-16
	4.669052180485131e-16
	5.876331398929311e-16
	5.876333935900515e-16
	5.876332142082769e-16
	3.552039996650874e-22
	3.365838167061356e-22
	3.583570896947771e-22
	3.552065385120754e-22
	-2.900293661707774e-19
	-1.819049535029335e-23
	1.222705885060705e-16
	-1.800722838839837e-23
	-7.430007302355856e-19
	-7.429979334551422e-19
	-1.725213257375924e-22
	1.712137510077045e-15
	-7.430009852379945e-19
	-7.430006142357888e-19
	5.876331451724431e-16
	-8.926518530760425e-23
	-4.953506346102434e-23
	-1.960912379559732e-14
	-7.430009923753243e-19
	-7.431033537216950e-19
	1.434776614454157e-24
	4.669052180396898e-16
	1.712137510077021e-15
	5.876332142070891e-16
	1.222705885059949e-16
	4.669052180449103e-16
	5.876331451724505e-16
	-7.430006171696107e-19
	-7.430006201124064e-19
	1.712137510078976e-15
	1.712137510058709e-15
	-1.960912379556868e-14
	5.876331398921277e-16
	-7.430007304675852e-19
	1.222705885061461e-16
	-2.900293572505676e-19
	-2.900293691115005e-19
	3.552052065892640e-22
18		1.128000000000001e-07
	4.669052165842516e-16
	4.669051888973031e-16
	5.876331125732377e-16
	5.876333604280197e-16
	5.876332060114150e-16
	3.447725015881585e-22
	3.268273372385817e-22
	3.476310858732022e-22
	3.447747872149599e-22
	-2.900432078136890e-19
	-1.842962910335771e-23
	1.222705838141424e-16
	-1.910599374396971e-23
	-7.430406713412429e-19
	-7.430375568106481e-19
	-1.993503801113132e-22
	1.712137432172118e-15
	-7.430410697293043e-19
	-7.430405348259014e-19
	5.876331148082522e-16
	-1.041882226133696e-22
	-5.676225566524455e-23
	-1.960912349575922e-14
	-7.430410760142946e-19
	-7.431148740190458e-19
	2.764991055751168e-24
	4.669051888902323e-16
	1.712137432172089e-15
	5.876332060103166e-16
	1.222705838141276e-16
	4.669051888933491e-16
	5.876331148076295e-16
	-7.430405391370466e-19
	-7.430405418270428e-19
	1.712137432173773e-15
	1.712137432153239e-15
	-1.960912349573073e-14
	5.876331125720858e-16
	-7.430406716142736e-19
	1.222705838141571e-16
	-2.900432013155549e-19
	-2.900432105034815e-19
	3.447733758391910e-22
19		1.228000000000001e-07
	4.669051813402847e-16
	4.669051599004505e-16
	5.876330861612163e-16
	5.876333209508970e-16
	5.876331981768122e-16
	3.291734485386739e-22
	3.121504235747156e-22
	3.316278225857868e-22
	3.291753924614212e-22
	-2.900606562773045e-19
	-1.921348725491540e-23
	1.222705796566097e-16
	-1.949324492139322e-23
	-7.430805599859397e-19
	-7.430773050032169e-19
	-2.193221185303382e-22
	1.712137351639680e-15
	-7.430811058261706e-19
	-7.430804186238734e-19
	5.876330849941043e-16
	-1.176506095409829e-22
	-6.326479762574550e-23
	-1.960912318558189e-14
	-7.430811109021540e-19
	-7.431200241632714e-19
	3.989023922813232e-24
	4.669051598954543e-16
	1.712137351639646e-15
	5.876331981757884e-16
	1.222705796566747e-16
	4.669051598967184e-16
	5.876330849928041e-16
	-7.430804239526560e-19
	-7.430804263932155e-19
	1.712137351641437e-15
	1.712137351620566e-15
	-1.960912318555339e-14
	5.876330861597783e-16
	-7.430805602686640e-19
	1.222705796565447e-16
	-2.900606518297040e-19
	-2.900606587177359e-19
	3.291741358547399e-22
20		1.328000000000001e-07
	4.669051448890827e-16
	4.669051311764743e-16
	5.876330614290636e-16
	5.876332765231717e-16
	5.876331909534662e-16
	3.097077068748897e-22
	2.937808992830998e-22
	3.116821640884621e-22
	3.097092774570632e-22
	-2.900805638436425e-19
	-2.043090837162872e-23
	1.222705762208862e-16
	-1.904444785152431e-23
	-7.431189697957399e-19
	-7.431157416683525e-19
	-2.309310237602830e-22
	1.712137269623371e-15
	-7.431196445503632e-19
	-7.431188355606093e-19
	5.876330564792449e-16
	-1.282514295524892e-22
	-6.876093784413294e-23
	-1.960912286375036e-14
	-7.431196482624220e-19
	-7.431267787672581e-19
	5.129449676492305e-24
	4.669051311736452e-16
	1.712137269623333e-15
	5.876331909524899e-16
	1.222705762210421e-16
	4.669051311735750e-16
	5.876330564772633e-16
	-7.431188413050014e-19
	-7.431188434754334e-19
	1.712137269625511e-15
	1.712137269604483e-15
	-1.960912286372180e-14
	5.876330614275908e-16
	-7.431189700642102e-19
	1.222705762207304e-16
	-2.900805609146241e-19
	-2.900805660130051e-19
	3.097082868763931e-22
21		1.428000000000001e-07
	4.669051078719499e-16
	4.669051024722082e-16
	5.876330388592234e-16
	5.876332284421453e-16
	5.876331845564888e-16
	2.875999485092464e-22
	2.728844205724273e-22
	2.890747420329673e-22
	2.876011517959065e-22
	-2.901018673272493e-19
	-2.172060163051067e-23
	1.222705736586513e-16
	-1.767262810506822e-23
	-7.431550153987444e-19
	-7.431519603128340e-19
	-2.335473270932533e-22
	1.712137186830966e-15
	-7.431557840943986e-19
	-7.431548976391524e-19
	5.876330299289782e-16
	-1.349082864157422e-22
	-7.302410313881647e-23
	-1.960912252902264e-14
	-7.431557864670202e-19
	-7.431404427831311e-19
	6.175385516628054e-24
	4.669051024714116e-16
	1.712137186830925e-15
	5.876331845555296e-16
	1.222705736589007e-16
	4.669051024706225e-16
	5.876330299263567e-16
	-7.431549031275577e-19
	-7.431549049811434e-19
	1.712137186833659e-15
	1.712137186812831e-15
	-1.960912252899399e-14
	5.876330388580190e-16
	-7.431550156342636e-19
	1.222705736584019e-16
	-2.901018654171363e-19
	-2.901018691786077e-19
	2.876004423197591e-22
22		1.528000000000001e-07
	4.669050708242645e-16
	4.669050732719705e-16
	5.876330186348429e-16
	5.876331779036023e-16
	5.876331791434524e-16
	2.639853991839323e-22
	2.505385490458377e-22
	2.649923721400292e-22
	2.639862599605890e-22
	-2.901236391768502e-19
	-2.262235474601709e-23
	1.222705720671834e-16
	-1.534185089842464e-23
	-7.431883484755929e-19
	-7.431855831240163e-19
	-2.273553126883783e-22
	1.712137103550596e-15
	-7.431891680235552e-19
	-7.431882542581645e-19
	5.876330058714118e-16
	-1.369212149592342e-22
	-7.590528791861379e-23
	-1.960912218024791e-14
	-7.431891692361897e-19
	-7.431630036451829e-19
	7.072550985666615e-24
	4.669050732728756e-16
	1.712137103550554e-15
	5.876331791424814e-16
	1.222705720675217e-16
	4.669050732719288e-16
	5.876330058682373e-16
	-7.431882589014248e-19
	-7.431882603754406e-19
	1.712137103553896e-15
	1.712137103533699e-15
	-1.960912218021919e-14
	5.876330186341456e-16
	-7.431883486640279e-19
	1.222705720668451e-16
	-2.901236379372401e-19
	-2.901236406478619e-19
	2.639858085426311e-22
23		1.628000000000001e-07
	4.669050341303775e-16
	4.669050429560182e-16
	5.876330006828785e-16
	5.876331260014366e-16
	5.876331747975931e-16
	2.399068166384748e-22
	2.277335739697338e-22
	2.405051662808510e-22
	2.399073636488643e-22
	-2.901451112474757e-19
	-2.272535391039219e-23
	1.222705714766497e-16
	-1.207576080880959e-23
	-7.432190598756126e-19
	-7.432166662666653e-19
	-2.131803468088665e-22
	1.712137019740651e-15
	-7.432198875561114e-19
	-7.432189935754041e-19
	5.876329846549747e-16
	-1.339712853050542e-22
	-7.734613480233975e-23
	-1.960912181636917e-14
	-7.432198879095710e-19
	-7.431934712009561e-19
	7.730652256610303e-24
	4.669050429581488e-16
	1.712137019740610e-15
	5.876331747965871e-16
	1.222705714770662e-16
	4.669050429574515e-16
	5.876329846513763e-16
	-7.432189969644339e-19
	-7.432189979959495e-19
	1.712137019744483e-15
	1.712137019725342e-15
	-1.960912181634039e-14
	5.876330006828010e-16
	-7.432190600082131e-19
	1.222705714762332e-16
	-2.901451105172213e-19
	-2.901451122759114e-19
	2.399071491490172e-22
24		1.728000000000001e-07
	4.669049979987656e-16
	4.669050109611204e-16
	5.876329847352403e-16
	5.876330737326982e-16
	5.876331715185614e-16
	2.163081954881323e-22
	2.053720096875013e-22
	2.165565126149074e-22
	2.163084527359389e-22
	-2.901656743254652e-19
	-2.177165350477073e-23
	1.222705718438858e-16
	-7.960745698130955e-24
	-7.432475330087354e-19
	-7.432455572808895e-19
	-1.922634874218011e-22
	1.712136935152276e-15
	-7.432483331050904e-19
	-7.432474956501220e-19
	5.876329664177802e-16
	-1.260884869916499e-22
	-7.738361552258789e-23
	-1.960912143642710e-14
	-7.432483329774536e-19
	-7.432288733412081e-19
	8.042809506669803e-24
	4.669050109639192e-16
	1.712136935152237e-15
	5.876331715175034e-16
	1.222705718443653e-16
	4.669050109636873e-16
	5.876329664139257e-16
	-7.432474975908027e-19
	-7.432474981328249e-19
	1.712136935156432e-15
	1.712136935138712e-15
	-1.960912143639826e-14
	5.876329847357603e-16
	-7.432475330834527e-19
	1.222705718434063e-16
	-2.901656740991596e-19
	-2.901656748650800e-19
	2.163084675879023e-22
25		1.828000000000002e-07
	4.669049624583096e-16
	4.669049769040325e-16
	5.876329703867415e-16
	5.876330219941412e-16
	5.876331692206345e-16
	1.940209362026870e-22
	1.842555037802417e-22
	1.939590939520345e-22
	1.940209203567585e-22
	-2.901848627823657e-19
	-1.969805720656054e-23
	1.222705730525630e-16
	-3.143818424242838e-24
	-7.432742939617219e-19
	-7.432727495806049e-19
	-1.660408952545262e-22
	1.712136849446735e-15
	-7.432750413761711e-19
	-7.432742829644396e-19
	5.876329510709726e-16
	-1.136102153986822e-22
	-7.614725902816906e-23
	-1.960912103957182e-14
	-7.432750411668939e-19
	-7.432655034345769e-19
	7.910477786868508e-24
	4.669049769069288e-16
	1.712136849446699e-15
	5.876331692195137e-16
	1.222705730530875e-16
	4.669049769072049e-16
	5.876329510670580e-16
	-7.432742834593474e-19
	-7.432742834931864e-19
	1.712136849450896e-15
	1.712136849434885e-15
	-1.960912103954292e-14
	5.876329703877267e-16
	-7.432742939837165e-19
	1.222705730520385e-16
	-2.901848631399545e-19
	-2.901848628150510e-19
	1.940211654296252e-22
26		1.928000000000002e-07
	4.669049273737713e-16
	4.669049406443775e-16
	5.876329571423079e-16
	5.876329715695286e-16
	5.876331677378693e-16
	1.737446955773217e-22
	1.650622358718316e-22
	1.733905371756665e-22
	1.737444179578766e-22
	-2.902023354133931e-19
	-1.662201792953850e-23
	1.222705749192654e-16
	2.174359992811700e-24
	-7.432998932073031e-19
	-7.432987679180722e-19
	-1.359707269684081e-22
	1.712136762281323e-15
	-7.433005740064840e-19
	-7.432999029472100e-19
	5.876329382983929e-16
	-9.713783943517993e-23
	-7.384985716190402e-23
	-1.960912062508089e-14
	-7.433005740819726e-19
	-7.433000571745223e-19
	7.267528041872103e-24
	4.669049406468482e-16
	1.712136762281291e-15
	5.876331677366809e-16
	1.222705749198156e-16
	4.669049406475576e-16
	5.876329382946286e-16
	-7.432999021428364e-19
	-7.432999016839927e-19
	1.712136762285108e-15
	1.712136762270999e-15
	-1.960912062505189e-14
	5.876329571435563e-16
	-7.432998931878233e-19
	1.222705749187152e-16
	-2.902023364419755e-19
	-2.902023349549266e-19
	1.737448941562699e-22
27		2.028000000000002e-07
	4.669048924762692e-16
	4.669049022815779e-16
	5.876329444541138e-16
	5.876329231133452e-16
	5.876331668352253e-16
	1.560278074271722e-22
	1.483235077333000e-22
	1.553854805659283e-22
	1.560272783307785e-22
	-2.902178609023521e-19
	-1.279082879249357e-23
	1.222705772046114e-16
	7.750558344492634e-24
	-7.433248373775369e-19
	-7.433241022769249e-19
	-1.034288998507906e-22
	1.712136673352106e-15
	-7.433254470651445e-19
	-7.433248605403825e-19
	5.876329275737537e-16
	-7.749061137009114e-23
	-7.077277044704534e-23
	-1.960912019237820e-14
	-7.433254477133536e-19
	-7.433304128168506e-19
	6.098315907027121e-24
	4.669049022831965e-16
	1.712136673352075e-15
	5.876331668339693e-16
	1.222705772051679e-16
	4.669049022842170e-16