Title: kicad schematic
Date: Tue Jul 07 01:40:11  2026
Plotname: Transient Analysis
Flags: real
No. Variables: 46
No. Points: 108     
Variables:
	0	time	time
	1	v(net-_qp2-pad3_)	voltage
	2	v(input)	voltage
	3	v(net-_qn5-pad1_)	voltage
	4	v(net-_qn10-pad1_)	voltage
	5	v(net-_qp1-pad3_)	voltage
	6	v(net-_qn7-pad1_)	voltage
	7	v(net-_d6-pad2_)	voltage
	8	v(net-_d5-pad2_)	voltage
	9	v(net-_d5-pad1_)	voltage
	10	v(net-_qn1-pad2_)	voltage
	11	v(net-_qn2-pad3_)	voltage
	12	v(net-_qn4-pad2_)	voltage
	13	v(net-_qn9-pad2_)	voltage
	14	v(net-_d2-pad2_)	voltage
	15	v(net-_d1-pad2_)	voltage
	16	v(net-_qn7-pad3_)	voltage
	17	v(net-_qn11-pad2_)	voltage
	18	v(net-_qn11-pad1_)	voltage
	19	v(net-_c4-pad1_)	voltage
	20	v(net-_qn10-pad2_)	voltage
	21	v(net-_qn14-pad3_)	voltage
	22	v(net-_c4-pad2_)	voltage
	23	v(net-_qn12-pad1_)	voltage
	24	v(net-_qn12-pad3_)	voltage
	25	v(net-_qn6-pad2_)	voltage
	26	v(net-_qn5-pad3_)	voltage
	27	v(net-_qn6-pad3_)	voltage
	28	v(qn8#collCX)	voltage
	29	v(qn6#collCX)	voltage
	30	v(qn5#collCX)	voltage
	31	v(qn4#collCX)	voltage
	32	v(qn9#collCX)	voltage
	33	v(qn11#collCX)	voltage
	34	v(qn13#collCX)	voltage
	35	v(qn10#collCX)	voltage
	36	v(qn12#collCX)	voltage
	37	v(qn14#collCX)	voltage
	38	v(qn7#collCX)	voltage
	39	v(qn15#collCX)	voltage
	40	v(qn1#collCX)	voltage
	41	v(qn2#collCX)	voltage
	42	v(qn3#collCX)	voltage
	43	v(qp1#collCX)	voltage
	44	v(qp2#collCX)	voltage
	45	i(v1)	current
Values:
0		0.000000000000000e+00
	1.172654341513299e+01
	1.200028977577679e+01
	1.097463211376498e+01
	6.983001325293777e-01
	1.172452768429368e+01
	1.129640367458194e+01
	1.196380301089059e+01
	1.200026470577574e+01
	2.749075748205832e-07
	4.000243866332361e-03
	2.289022268456561e-10
	6.765170722300300e-01
	5.429396404276851e+00
	1.265014488788839e+01
	-6.498551121116058e-01
	1.127909960315269e+01
	1.260113070291283e+00
	4.758961371781462e+00
	6.696161872776131e-01
	6.721706280067241e-01
	8.717945059664725e-02
	8.795649026666528e-01
	2.640728095178992e-01
	2.601065071098635e-01
	1.136508851194665e-09
	4.596047557679682e+00
	4.758961334411182e+00
	4.596047557684292e+00
	1.433999885356261e-14
	1.097463211374303e+01
	4.000243854349919e-03
	1.097188331977522e+01
	4.758837993394316e+00
	2.640728091834580e-01
	6.955669067940327e-01
	2.640728098523405e-01
	8.794783744614454e-01
	1.129499590237955e+01
	1.257614740269261e+00
	1.200028977575277e+01
	1.200028977575277e+01
	4.000243866321968e-03
	7.002637302280164e-01
	1.097658065659819e+01
	-7.267731942848688e-03
1		1.000000000000000e-10
	1.172654341513284e+01
	1.200028977577679e+01
	1.097463211376486e+01
	6.983001325293421e-01
	1.172452768429357e+01
	1.129640367457827e+01
	1.196380301088753e+01
	1.200026470577572e+01
	2.749075589990671e-07
	4.000243866285265e-03
	2.289020145701865e-10
	6.765170722299798e-01
	5.429396404276768e+00
	1.265014488788840e+01
	-6.498551121116032e-01
	1.127909960314901e+01
	1.260113070291274e+00
	4.758961371781392e+00
	6.696161872776035e-01
	6.721706280067209e-01
	8.717945059663865e-02
	8.795649026666453e-01
	2.640728095178966e-01
	2.601065071098611e-01
	1.136487364016922e-09
	4.596047557679651e+00
	4.758961334411143e+00
	4.596047557684260e+00
	1.282307593442056e-14
	1.097463211374291e+01
	4.000243854298074e-03
	1.097188331977510e+01
	4.758837993394248e+00
	2.640728091834554e-01
	6.955669067939994e-01
	2.640728098523377e-01
	8.794783744614381e-01
	1.129499590237587e+01
	1.257614740269253e+00
	1.200028977575277e+01
	1.200028977575277e+01
	4.000243866277235e-03
	7.002637302279791e-01
	1.097658065659807e+01
	-7.267731942848243e-03
2		2.000000000000001e-10
	1.172654341513278e+01
	1.200028977577679e+01
	1.097463211376480e+01
	6.983001325293237e-01
	1.172452768429351e+01
	1.129640367457751e+01
	1.196380301088664e+01
	1.200026470577571e+01
	2.749075425351319e-07
	4.000243866241359e-03
	2.289018378500838e-10
	6.765170722299365e-01
	5.429396404276741e+00
	1.265014488788840e+01
	-6.498551121116041e-01
	1.127909960314825e+01
	1.260113070291275e+00
	4.758961371781369e+00
	6.696161872776090e-01
	6.721706280067190e-01
	8.717945059664409e-02
	8.795649026666521e-01
	2.640728095179014e-01
	2.601065071098658e-01
	1.136476283096139e-09
	4.596047557679653e+00
	4.758961334411124e+00
	4.596047557684264e+00
	1.351696532481128e-14
	1.097463211374285e+01
	4.000243854252889e-03
	1.097188331977504e+01
	4.758837993394224e+00
	2.640728091834599e-01
	6.955669067939800e-01
	2.640728098523429e-01
	8.794783744614448e-01
	1.129499590237511e+01
	1.257614740269253e+00
	1.200028977575277e+01
	1.200028977575277e+01
	4.000243866233212e-03
	7.002637302279613e-01
	1.097658065659801e+01
	-7.267731942846245e-03
3		4.000000000000002e-10
	1.172654341513272e+01
	1.200028977577679e+01
	1.097463211376473e+01
	6.983001325293051e-01
	1.172452768429343e+01
	1.129640367457718e+01
	1.196380301088621e+01
	1.200026470577568e+01
	2.749075169351670e-07
	4.000243866169479e-03
	2.289017134354398e-10
	6.765170722298667e-01
	5.429396404276681e+00
	1.265014488788840e+01
	-6.498551121116041e-01
	1.127909960314792e+01
	1.260113070291272e+00
	4.758961371781314e+00
	6.696161872776059e-01
	6.721706280067172e-01
	8.717945059664020e-02
	8.795649026666503e-01
	2.640728095178979e-01
	2.601065071098617e-01
	1.136458809336442e-09
	4.596047557679652e+00
	4.758961334411092e+00
	4.596047557684263e+00
	1.390554338343009e-14
	1.097463211374278e+01
	4.000243854180564e-03
	1.097188331977497e+01
	4.758837993394171e+00
	2.640728091834570e-01
	6.955669067939605e-01
	2.640728098523387e-01
	8.794783744614428e-01
	1.129499590237478e+01
	1.257614740269251e+00
	1.200028977575277e+01
	1.200028977575277e+01
	4.000243866160424e-03
	7.002637302279435e-01
	1.097658065659794e+01
	-7.267731942846245e-03
4		8.000000000000003e-10
	1.172654341513278e+01
	1.200028977577679e+01
	1.097463211376477e+01
	6.983001325293589e-01
	1.172452768429346e+01
	1.129640367457963e+01
	1.196380301088842e+01
	1.200026470577566e+01
	2.749074854487433e-07
	4.000243866078183e-03
	2.289017764486712e-10
	6.765170722297810e-01
	5.429396404276652e+00
	1.265014488788839e+01
	-6.498551121116067e-01
	1.127909960315037e+01
	1.260113070291274e+00
	4.758961371781286e+00
	6.696161872776107e-01
	6.721706280067218e-01
	8.717945059664452e-02
	8.795649026666547e-01
	2.640728095178987e-01
	2.601065071098640e-01
	1.136454547443833e-09
	4.596047557679681e+00
	4.758961334411072e+00
	4.596047557684292e+00
	1.461331056162862e-14
	1.097463211374281e+01
	4.000243854090917e-03
	1.097188331977501e+01
	4.758837993394142e+00
	2.640728091834570e-01
	6.955669067940122e-01
	2.640728098523404e-01
	8.794783744614473e-01
	1.129499590237723e+01
	1.257614740269252e+00
	1.200028977575277e+01
	1.200028977575277e+01
	4.000243866068567e-03
	7.002637302279986e-01
	1.097658065659798e+01
	-7.267731942855349e-03
5		1.600000000000001e-09
	1.172654341513294e+01
	1.200028977577679e+01
	1.097463211376492e+01
	6.983001325294623e-01
	1.172452768429362e+01
	1.129640367458090e+01
	1.196380301088966e+01
	1.200026470577564e+01
	2.749074580917204e-07
	4.000243865976642e-03
	2.289020386396286e-10
	6.765170722296858e-01
	5.429396404276628e+00
	1.265014488788839e+01
	-6.498551121116085e-01
	1.127909960315165e+01
	1.260113070291279e+00
	4.758961371781257e+00
	6.696161872776107e-01
	6.721706280067316e-01
	8.717945059664524e-02
	8.795649026666561e-01
	2.640728095179037e-01
	2.601065071098668e-01
	1.136460940282747e-09
	4.596047557679692e+00
	4.758961334411065e+00
	4.596047557684303e+00
	1.419003803349028e-14
	1.097463211374297e+01
	4.000243853991810e-03
	1.097188331977516e+01
	4.758837993394112e+00
	2.640728091834628e-01
	6.955669067941165e-01
	2.640728098523446e-01
	8.794783744614488e-01
	1.129499590237851e+01
	1.257614740269257e+00
	1.200028977575277e+01
	1.200028977575277e+01
	4.000243865966702e-03
	7.002637302281016e-01
	1.097658065659813e+01
	-7.267731942853795e-03
6		3.200000000000001e-09
	1.172654341513293e+01
	1.200028977577678e+01
	1.097463211376493e+01
	6.983001325294272e-01
	1.172452768429362e+01
	1.129640367458182e+01
	1.196380301089043e+01
	1.200026470577566e+01
	2.749074550158388e-07
	4.000243865912098e-03
	2.289021545829220e-10
	6.765170722296252e-01
	5.429396404276441e+00
	1.265014488788839e+01
	-6.498551121116138e-01
	1.127909960315256e+01
	1.260113070291264e+00
	4.758961371781053e+00
	6.696161872776023e-01
	6.721706280067287e-01
	8.717945059663672e-02
	8.795649026666508e-01
	2.640728095178957e-01
	2.601065071098612e-01
	1.136417895167397e-09
	4.596047557679682e+00
	4.758961334410944e+00
	4.596047557684293e+00
	1.408248517797972e-14
	1.097463211374298e+01
	4.000243853929135e-03
	1.097188331977517e+01
	4.758837993393908e+00
	2.640728091834541e-01
	6.955669067940818e-01
	2.640728098523374e-01
	8.794783744614434e-01
	1.129499590237943e+01
	1.257614740269243e+00
	1.200028977575276e+01
	1.200028977575276e+01
	4.000243865901786e-03
	7.002637302280661e-01
	1.097658065659814e+01
	-7.267731942860678e-03
7		6.400000000000003e-09
	1.172654341513285e+01
	1.200028977577678e+01
	1.097463211376483e+01
	6.983001325293915e-01
	1.172452768429354e+01
	1.129640367458234e+01
	1.196380301089098e+01
	1.200026470577571e+01
	2.749074913387800e-07
	4.000243865907314e-03
	2.289022296220411e-10
	6.765170722296220e-01
	5.429396404276622e+00
	1.265014488788838e+01
	-6.498551121116209e-01
	1.127909960315308e+01
	1.260113070291301e+00
	4.758961371781232e+00
	6.696161872776235e-01
	6.721706280067262e-01
	8.717945059665763e-02
	8.795649026666774e-01
	2.640728095179236e-01
	2.601065071098828e-01
	1.136526999618185e-09
	4.596047557679846e+00
	4.758961334411095e+00
	4.596047557684457e+00
	1.511117619923397e-14
	1.097463211374288e+01
	4.000243853924594e-03
	1.097188331977507e+01
	4.758837993394087e+00
	2.640728091834826e-01
	6.955669067940460e-01
	2.640728098523646e-01
	8.794783744614701e-01
	1.129499590237995e+01
	1.257614740269279e+00
	1.200028977575276e+01
	1.200028977575276e+01
	4.000243865897028e-03
	7.002637302280306e-01
	1.097658065659804e+01
	-7.267731942854461e-03
8		1.280000000000001e-08
	1.172654341513281e+01
	1.200028977577678e+01
	1.097463211376479e+01
	6.983001325294620e-01
	1.172452768429350e+01
	1.129640367458134e+01
	1.196380301089000e+01
	1.200026470577576e+01
	2.749075364797543e-07
	4.000243865908311e-03
	2.289021880014525e-10
	6.765170722296246e-01
	5.429396404276860e+00
	1.265014488788837e+01
	-6.498551121116298e-01
	1.127909960315209e+01
	1.260113070291283e+00
	4.758961371781487e+00
	6.696161872776102e-01
	6.721706280067352e-01
	8.717945059664418e-02
	8.795649026666925e-01
	2.640728095179375e-01
	2.601065071098961e-01
	1.136573667342253e-09
	4.596047557679982e+00
	4.758961334411285e+00
	4.596047557684592e+00
	1.368263141676707e-14
	1.097463211374284e+01
	4.000243853925735e-03
	1.097188331977503e+01
	4.758837993394342e+00
	2.640728091834960e-01
	6.955669067941157e-01
	2.640728098523791e-01
	8.794783744614850e-01
	1.129499590237895e+01
	1.257614740269261e+00
	1.200028977575276e+01
	1.200028977575276e+01
	4.000243865897919e-03
	7.002637302281016e-01
	1.097658065659801e+01
	-7.267731942857125e-03
9		2.280000000000001e-08
	1.172654341513307e+01
	1.200028977577678e+01
	1.097463211376507e+01
	6.983001325292503e-01
	1.172452768429375e+01
	1.129640367458218e+01
	1.196380301089084e+01
	1.200026470577576e+01
	2.749075633684019e-07
	4.000243865903990e-03
	2.289022478709124e-10
	6.765170722296208e-01
	5.429396404276608e+00
	1.265014488788838e+01
	-6.498551121116236e-01
	1.127909960315293e+01
	1.260113070291281e+00
	4.758961371781213e+00
	6.696161872776134e-01
	6.721706280067176e-01
	8.717945059664740e-02
	8.795649026667169e-01
	2.640728095179628e-01
	2.601065071099231e-01
	1.136466906932399e-09
	4.596047557680235e+00
	4.758961334411140e+00
	4.596047557684846e+00
	1.483405412394667e-14
	1.097463211374311e+01
	4.000243853921490e-03
	1.097188331977530e+01
	4.758837993394067e+00
	2.640728091835218e-01
	6.955669067939059e-01
	2.640728098524038e-01
	8.794783744615096e-01
	1.129499590237979e+01
	1.257614740269259e+00
	1.200028977575276e+01
	1.200028977575276e+01
	4.000243865893643e-03
	7.002637302278885e-01
	1.097658065659828e+01
	-7.267731942854905e-03
10		3.280000000000002e-08
	1.172654341513299e+01
	1.200028977577679e+01
	1.097463211376499e+01
	6.983001325292364e-01
	1.172452768429368e+01
	1.129640367458164e+01
	1.196380301089028e+01
	1.200026470577575e+01
	2.749075717271669e-07
	4.000243865905683e-03
	2.289022019292461e-10
	6.765170722296239e-01
	5.429396404276696e+00
	1.265014488788839e+01
	-6.498551121116050e-01
	1.127909960315238e+01
	1.260113070291299e+00
	4.758961371781306e+00
	6.696161872776091e-01
	6.721706280067110e-01
	8.717945059664362e-02
	8.795649026667138e-01
	2.640728095179601e-01
	2.601065071099231e-01
	1.136567274503340e-09
	4.596047557680963e+00
	4.758961334411351e+00
	4.596047557685575e+00
	1.399965213200183e-14
	1.097463211374303e+01
	4.000243853923259e-03
	1.097188331977523e+01
	4.758837993394161e+00
	2.640728091835186e-01
	6.955669067938922e-01
	2.640728098524016e-01
	8.794783744615065e-01
	1.129499590237925e+01
	1.257614740269278e+00
	1.200028977575277e+01
	1.200028977575277e+01
	4.000243865895258e-03
	7.002637302278742e-01
	1.097658065659820e+01
	-7.267731942848021e-03
11		4.280000000000003e-08
	1.172654341513280e+01
	1.200028977577679e+01
	1.097463211376478e+01
	6.983001325294905e-01
	1.172452768429349e+01
	1.129640367458228e+01
	1.196380301089093e+01
	1.200026470577574e+01
	2.749075739142195e-07
	4.000243865904344e-03
	2.289022499173007e-10
	6.765170722296231e-01
	5.429396404276503e+00
	1.265014488788839e+01
	-6.498551121116103e-01
	1.127909960315303e+01
	1.260113070291299e+00
	4.758961371781103e+00
	6.696161872776115e-01
	6.721706280067339e-01
	8.717945059664650e-02
	8.795649026667167e-01
	2.640728095179625e-01
	2.601065071099270e-01
	1.136516344886663e-09
	4.596047557681862e+00
	4.758961334411394e+00
	4.596047557686473e+00
	1.460160117816578e-14
	1.097463211374282e+01
	4.000243853921860e-03
	1.097188331977501e+01
	4.758837993393957e+00
	2.640728091835216e-01
	6.955669067941445e-01
	2.640728098524036e-01
	8.794783744615093e-01
	1.129499590237989e+01
	1.257614740269278e+00
	1.200028977575277e+01
	1.200028977575277e+01
	4.000243865893990e-03
	7.002637302281300e-01
	1.097658065659799e+01
	-7.267731942847577e-03
12		5.280000000000004e-08
	1.172654341513299e+01
	1.200028977577680e+01
	1.097463211376498e+01
	6.983001325293916e-01
	1.172452768429367e+01
	1.129640367458138e+01
	1.196380301089005e+01
	1.200026470577574e+01
	2.749075746302267e-07
	4.000243865905168e-03
	2.289022043360212e-10
	6.765170722296268e-01
	5.429396404276880e+00
	1.265014488788838e+01
	-6.498551121116201e-01
	1.127909960315213e+01
	1.260113070291318e+00
	4.758961371781491e+00
	6.696161872776164e-01
	6.721706280067294e-01
	8.717945059665083e-02
	8.795649026667179e-01
	2.640728095179630e-01
	2.601065071099260e-01
	1.136620548160951e-09
	4.596047557682889e+00
	4.758961334411823e+00
	4.596047557687500e+00
	1.423774292907964e-14
	1.097463211374303e+01
	4.000243853922763e-03
	1.097188331977522e+01
	4.758837993394344e+00
	2.640728091835214e-01
	6.955669067940462e-01
	2.640728098524044e-01
	8.794783744615106e-01
	1.129499590237899e+01
	1.257614740269296e+00
	1.200028977575278e+01
	1.200028977575277e+01
	4.000243865894738e-03
	7.002637302280306e-01
	1.097658065659819e+01
	-7.267731942851796e-03
13		6.280000000000005e-08
	1.172654341513289e+01
	1.200028977577680e+01
	1.097463211376488e+01
	6.983001325293350e-01
	1.172452768429358e+01
	1.129640367458194e+01
	1.196380301089062e+01
	1.200026470577574e+01
	2.749075748618122e-07
	4.000243865904063e-03
	2.289022491342510e-10
	6.765170722296266e-01
	5.429396404276760e+00
	1.265014488788838e+01
	-6.498551121116165e-01
	1.127909960315269e+01
	1.260113070291301e+00
	4.758961371781382e+00
	6.696161872776124e-01
	6.721706280067243e-01
	8.717945059664695e-02
	8.795649026667161e-01
	2.640728095179630e-01
	2.601065071099273e-01
	1.136523163914837e-09
	4.596047557683836e+00
	4.758961334411906e+00
	4.596047557688447e+00
	1.429433828248339e-14
	1.097463211374292e+01
	4.000243853921567e-03
	1.097188331977512e+01
	4.758837993394236e+00
	2.640728091835220e-01
	6.955669067939897e-01
	2.640728098524040e-01
	8.794783744615087e-01
	1.129499590237955e+01
	1.257614740269280e+00
	1.200028977575278e+01
	1.200028977575278e+01
	4.000243865893708e-03
	7.002637302279737e-01
	1.097658065659809e+01
	-7.267731942855793e-03
14		7.280000000000006e-08
	1.172654341513296e+01
	1.200028977577680e+01
	1.097463211376495e+01
	6.983001325294338e-01
	1.172452768429365e+01
	1.129640367458169e+01
	1.196380301089034e+01
	1.200026470577574e+01
	2.749075746428034e-07
	4.000243865903677e-03
	2.289022047026057e-10
	6.765170722296270e-01
	5.429396404276652e+00
	1.265014488788839e+01
	-6.498551121116050e-01
	1.127909960315243e+01
	1.260113070291310e+00
	4.758961371781263e+00
	6.696161872776145e-01
	6.721706280067341e-01
	8.717945059664872e-02
	8.795649026667162e-01
	2.640728095179615e-01
	2.601065071099244e-01
	1.136524229387989e-09
	4.596047557684649e+00
	4.758961334411969e+00
	4.596047557689261e+00
	1.438692914801365e-14
	1.097463211374300e+01
	4.000243853921268e-03
	1.097188331977519e+01
	4.758837993394118e+00
	2.640728091835201e-01
	6.955669067940876e-01
	2.640728098524030e-01
	8.794783744615088e-01
	1.129499590237930e+01
	1.257614740269288e+00
	1.200028977575278e+01
	1.200028977575278e+01
	4.000243865893248e-03
	7.002637302280732e-01
	1.097658065659816e+01
	-7.267731942848021e-03
15		8.280000000000007e-08
	1.172654341513337e+01
	1.200028977577681e+01
	1.097463211376540e+01
	6.983001325290532e-01
	1.172452768429405e+01
	1.129640367458205e+01
	1.196380301089072e+01
	1.200026470577574e+01
	2.749075751094440e-07
	4.000243865904290e-03
	2.289022491817174e-10
	6.765170722296302e-01
	5.429396404276974e+00
	1.265014488788840e+01
	-6.498551121116014e-01
	1.127909960315280e+01
	1.260113070291311e+00
	4.758961371781586e+00
	6.696161872776163e-01
	6.721706280066970e-01
	8.717945059665028e-02
	8.795649026667209e-01
	2.640728095179672e-01
	2.601065071099306e-01
	1.136593272048254e-09
	4.596047557685482e+00
	4.758961334412295e+00
	4.596047557690094e+00
	1.439777116973850e-14
	1.097463211374345e+01
	4.000243853921812e-03
	1.097188331977564e+01
	4.758837993394441e+00
	2.640728091835262e-01
	6.955669067937112e-01
	2.640728098524082e-01
	8.794783744615136e-01
	1.129499590237966e+01
	1.257614740269289e+00
	1.200028977575279e+01
	1.200028977575279e+01
	4.000243865893934e-03
	7.002637302276895e-01
	1.097658065659861e+01
	-7.267731942852018e-03
16		9.280000000000008e-08
	1.172654341513334e+01
	1.200028977577682e+01
	1.097463211376537e+01
	6.983001325290111e-01
	1.172452768429403e+01
	1.129640367458165e+01
	1.196380301089031e+01
	1.200026470577575e+01
	2.749075746666559e-07
	4.000243865903488e-03
	2.289022046001223e-10
	6.765170722296292e-01
	5.429396404276651e+00
	1.265014488788840e+01
	-6.498551121115996e-01
	1.127909960315240e+01
	1.260113070291289e+00
	4.758961371781265e+00
	6.696161872776100e-01
	6.721706280066795e-01
	8.717945059664418e-02
	8.795649026667320e-01
	2.640728095179768e-01
	2.601065071099382e-01
	1.136463710512943e-09
	4.596047557685903e+00
	4.758961334412146e+00
	4.596047557690515e+00
	1.408530410362818e-14
	1.097463211374342e+01
	4.000243853921073e-03
	1.097188331977561e+01
	4.758837993394120e+00
	2.640728091835354e-01
	6.955669067936701e-01
	2.640728098524183e-01
	8.794783744615245e-01
	1.129499590237926e+01
	1.257614740269267e+00
	1.200028977575279e+01
	1.200028977575279e+01
	4.000243865893060e-03
	7.002637302276469e-01
	1.097658065659858e+01
	-7.267731942848465e-03
17		1.028000000000001e-07
	1.172654341513284e+01
	1.200028977577682e+01
	1.097463211376482e+01
	6.983001325295196e-01
	1.172452768429353e+01
	1.129640367458210e+01
	1.196380301089077e+01
	1.200026470577577e+01
	2.749075747230344e-07
	4.000243865902817e-03
	2.289022487196224e-10
	6.765170722296284e-01
	5.429396404276370e+00
	1.265014488788841e+01
	-6.498551121115863e-01
	1.127909960315285e+01
	1.260113070291288e+00
	4.758961371780988e+00
	6.696161872776112e-01
	6.721706280067217e-01
	8.717945059664607e-02
	8.795649026667454e-01
	2.640728095179919e-01
	2.601065071099533e-01
	1.136500788978640e-09
	4.596047557686579e+00
	4.758961334412100e+00
	4.596047557691190e+00
	1.465082395679662e-14
	1.097463211374286e+01
	4.000243853920334e-03
	1.097188331977506e+01
	4.758837993393843e+00
	2.640728091835509e-01
	6.955669067941743e-01
	2.640728098524330e-01
	8.794783744615379e-01
	1.129499590237971e+01
	1.257614740269266e+00
	1.200028977575280e+01
	1.200028977575280e+01
	4.000243865892461e-03
	7.002637302281585e-01
	1.097658065659803e+01
	-7.267731942848243e-03
18		1.128000000000001e-07
	1.172654341513308e+01
	1.200028977577683e+01
	1.097463211376508e+01
	6.983001325295054e-01
	1.172452768429376e+01
	1.129640367458175e+01
	1.196380301089041e+01
	1.200026470577577e+01
	2.749075748414292e-07
	4.000243865903487e-03
	2.289022053729955e-10
	6.765170722296312e-01
	5.429396404276654e+00
	1.265014488788842e+01
	-6.498551121115845e-01
	1.127909960315250e+01
	1.260113070291308e+00
	4.758961371781263e+00
	6.696161872776127e-01
	6.721706280067288e-01
	8.717945059664706e-02
	8.795649026667387e-01
	2.640728095179836e-01
	2.601065071099479e-01
	1.136605631536820e-09
	4.596047557687735e+00
	4.758961334412461e+00
	4.596047557692346e+00
	1.418982119305578e-14
	1.097463211374313e+01
	4.000243853921072e-03
	1.097188331977532e+01
	4.758837993394117e+00
	2.640728091835422e-01
	6.955669067941601e-01
	2.640728098524251e-01
	8.794783744615312e-01
	1.129499590237936e+01
	1.257614740269287e+00
	1.200028977575281e+01
	1.200028977575281e+01
	4.000243865893057e-03
	7.002637302281443e-01
	1.097658065659829e+01
	-7.267731942852018e-03
19		1.228000000000001e-07
	1.172654341513337e+01
	1.200028977577683e+01
	1.097463211376540e+01
	6.983001325290961e-01
	1.172452768429406e+01
	1.129640367458217e+01
	1.196380301089084e+01
	1.200026470577577e+01
	2.749075750409224e-07
	4.000243865903232e-03
	2.289022482880605e-10
	6.765170722296332e-01
	5.429396404276969e+00
	1.265014488788841e+01
	-6.498551121115961e-01
	1.127909960315292e+01
	1.260113070291319e+00
	4.758961371781576e+00
	6.696161872776187e-01
	6.721706280066906e-01
	8.717945059665261e-02
	8.795649026667385e-01
	2.640728095179843e-01
	2.601065071099488e-01
	1.136579207802645e-09
	4.596047557688635e+00
	4.758961334412752e+00
	4.596047557693247e+00
	1.444937919314881e-14
	1.097463211374344e+01
	4.000243853920745e-03
	1.097188331977564e+01
	4.758837993394430e+00
	2.640728091835433e-01
	6.955669067937545e-01
	2.640728098524253e-01
	8.794783744615310e-01
	1.129499590237978e+01
	1.257614740269297e+00
	1.200028977575281e+01
	1.200028977575281e+01
	4.000243865892876e-03
	7.002637302277321e-01
	1.097658065659861e+01
	-7.267731942848910e-03
20		1.328000000000001e-07
	1.172654341513324e+01
	1.200028977577683e+01
	1.097463211376525e+01
	6.983001325292233e-01
	1.172452768429393e+01
	1.129640367458151e+01
	1.196380301089020e+01
	1.200026470577578e+01
	2.749075747464531e-07
	4.000243865903731e-03
	2.289022056142464e-10
	6.765170722296344e-01
	5.429396404276851e+00
	1.265014488788841e+01
	-6.498551121115881e-01
	1.127909960315227e+01
	1.260113070291294e+00
	4.758961371781462e+00
	6.696161872776124e-01
	6.721706280066934e-01
	8.717945059664629e-02
	8.795649026667508e-01
	2.640728095179955e-01
	2.601065071099564e-01
	1.136513148467206e-09
	4.596047557689459e+00
	4.758961334412784e+00
	4.596047557694070e+00
	1.413019007356908e-14
	1.097463211374330e+01
	4.000243853921339e-03
	1.097188331977549e+01
	4.758837993394317e+00
	2.640728091835540e-01
	6.955669067938809e-01
	2.640728098524370e-01
	8.794783744615433e-01
	1.129499590237912e+01
	1.257614740269272e+00
	1.200028977575281e+01
	1.200028977575281e+01
	4.000243865893302e-03
	7.002637302278600e-01
	1.097658065659846e+01
	-7.267731942848021e-03
21		1.428000000000001e-07
	1.172654341513301e+01
	1.200028977577683e+01
	1.097463211376501e+01
	6.983001325294776e-01
	1.172452768429371e+01
	1.129640367458202e+01
	1.196380301089071e+01
	1.200026470577578e+01
	2.749075749563547e-07
	4.000243865903714e-03
	2.289022480181380e-10
	6.765170722296342e-01
	5.429396404276673e+00
	1.265014488788841e+01
	-6.498551121115899e-01
	1.127909960315278e+01
	1.260113070291299e+00
	4.758961371781281e+00
	6.696161872776143e-01
	6.721706280067167e-01
	8.717945059664851e-02
	8.795649026667631e-01
	2.640728095180088e-01
	2.601065071099705e-01
	1.136516131792032e-09
	4.596047557690360e+00
	4.758961334412811e+00
	4.596047557694971e+00
	1.455389628257642e-14
	1.097463211374306e+01
	4.000243853921229e-03
	1.097188331977525e+01
	4.758837993394135e+00
	2.640728091835677e-01
	6.955669067941335e-01
	2.640728098524499e-01
	8.794783744615556e-01
	1.129499590237963e+01
	1.257614740269277e+00
	1.200028977575281e+01
	1.200028977575281e+01
	4.000243865893358e-03
	7.002637302281158e-01
	1.097658065659822e+01
	-7.267731942851352e-03
22		1.528000000000001e-07
	1.172654341513299e+01
	1.200028977577683e+01
	1.097463211376498e+01
	6.983001325295194e-01
	1.172452768429367e+01
	1.129640367458179e+01
	1.196380301089046e+01
	1.200026470577578e+01
	2.749075741956784e-07
	4.000243865902435e-03
	2.289022051759237e-10
	6.765170722296342e-01
	5.429396404276861e+00
	1.265014488788841e+01
	-6.498551121115872e-01
	1.127909960315255e+01
	1.260113070291307e+00
	4.758961371781488e+00
	6.696161872776142e-01
	6.721706280067271e-01
	8.717945059664829e-02
	8.795649026667640e-01
	2.640728095180086e-01
	2.601065071099713e-01
	1.136577503045601e-09
	4.596047557691327e+00
	4.758961334413074e+00
	4.596047557695938e+00
	1.421974517301638e-14
	1.097463211374303e+01
	4.000243853920028e-03
	1.097188331977523e+01
	4.758837993394342e+00
	2.640728091835671e-01
	6.955669067941738e-01
	2.640728098524501e-01
	8.794783744615565e-01
	1.129499590237940e+01
	1.257614740269285e+00
	1.200028977575281e+01
	1.200028977575281e+01
	4.000243865892009e-03
	7.002637302281585e-01
	1.097658065659820e+01
	-7.267731942849798e-03
23		1.628000000000001e-07
	1.172654341513319e+01
	1.200028977577683e+01
	1.097463211376520e+01
	6.983001325292937e-01
	1.172452768429388e+01
	1.129640367458195e+01
	1.196380301089064e+01
	1.200026470577577e+01
	2.749075747945917e-07
	4.000243865902722e-03
	2.289022481817793e-10
	6.765170722296352e-01
	5.429396404276890e+00
	1.265014488788842e+01
	-6.498551121115854e-01
	1.127909960315271e+01
	1.260113070291307e+00
	4.758961371781520e+00
	6.696161872776155e-01
	6.721706280067109e-01
	8.717945059664962e-02
	8.795649026667722e-01
	2.640728095180181e-01
	2.601065071099798e-01
	1.136524868671881e-09
	4.596047557692082e+00
	4.758961334413147e+00
	4.596047557696693e+00
	1.437955657324075e-14
	1.097463211374325e+01
	4.000243853920242e-03
	1.097188331977544e+01
	4.758837993394374e+00
	2.640728091835771e-01
	6.955669067939502e-01
	2.640728098524592e-01
	8.794783744615647e-01
	1.129499590237956e+01
	1.257614740269285e+00
	1.200028977575281e+01
	1.200028977575281e+01
	4.000243865892364e-03
	7.002637302279311e-01
	1.097658065659841e+01
	-7.267731942850020e-03
24		1.728000000000001e-07
	1.172654341513309e+01
	1.200028977577683e+01
	1.097463211376510e+01
	6.983001325292790e-01
	1.172452768429379e+01
	1.129640367458173e+01
	1.196380301089041e+01
	1.200026470577578e+01
	2.749075745252759e-07
	4.000243865902487e-03
	2.289022056515993e-10
	6.765170722296352e-01
	5.429396404276646e+00
	1.265014488788841e+01
	-6.498551121115899e-01
	1.127909960315249e+01
	1.260113070291299e+00
	4.758961371781260e+00
	6.696161872776109e-01
	6.721706280067069e-01
	8.717945059664529e-02
	8.795649026667736e-01
	2.640728095180187e-01
	2.601065071099807e-01
	1.136485233070618e-09
	4.596047557692764e+00
	4.758961334413062e+00
	4.596047557697376e+00
	1.424012817385911e-14
	1.097463211374315e+01
	4.000243853920080e-03
	1.097188331977534e+01
	4.758837993394115e+00
	2.640728091835773e-01
	6.955669067939351e-01
	2.640728098524602e-01
	8.794783744615662e-01
	1.129499590237934e+01
	1.257614740269277e+00
	1.200028977575281e+01
	1.200028977575281e+01
	4.000243865892061e-03
	7.002637302279169e-01
	1.097658065659831e+01
	-7.267731942847799e-03
25		1.828000000000002e-07
	1.172654341513315e+01
	1.200028977577683e+01
	1.097463211376516e+01
	6.983001325293785e-01
	1.172452768429383e+01
	1.129640367458195e+01
	1.196380301089065e+01
	1.200026470577578e+01
	2.749075749403085e-07
	4.000243865902626e-03
	2.289022477406295e-10
	6.765170722296361e-01
	5.429396404276679e+00
	1.265014488788841e+01
	-6.498551121115863e-01
	1.127909960315271e+01
	1.260113070291309e+00
	4.758961371781289e+00
	6.696161872776145e-01
	6.721706280067145e-01
	8.717945059664918e-02
	8.795649026667732e-01
	2.640728095180190e-01
	2.601065071099823e-01
	1.136552570973839e-09
	4.596047557693820e+00
	4.758961334413223e+00
	4.596047557698432e+00
	1.454218689911357e-14
	1.097463211374320e+01
	4.000243853920143e-03
	1.097188331977540e+01
	4.758837993394143e+00
	2.640728091835780e-01
	6.955669067940347e-01
	2.640728098524601e-01
	8.794783744615657e-01
	1.129499590237956e+01
	1.257614740269287e+00
	1.200028977575281e+01
	1.200028977575281e+01
	4.000243865892269e-03
	7.002637302280164e-01
	1.097658065659837e+01
	-7.267731942848243e-03
26		1.928000000000002e-07
	1.172654341513341e+01
	1.200028977577683e+01
	1.097463211376545e+01
	6.983001325291105e-01
	1.172452768429410e+01
	1.129640367458163e+01
	1.196380301089031e+01
	1.200026470577578e+01
	2.749075744736679e-07
	4.000243865901974e-03
	2.289022057822878e-10
	6.765170722296368e-01
	5.429396404276891e+00
	1.265014488788841e+01
	-6.498551121115890e-01
	1.127909960315239e+01
	1.260113070291314e+00
	4.758961371781508e+00
	6.696161872776152e-01
	6.721706280066869e-01
	8.717945059664929e-02
	8.795649026667677e-01
	2.640728095180132e-01
	2.601065071099763e-01
	1.136572601869101e-09
	4.596047557694891e+00
	4.758961334413477e+00
	4.596047557699501e+00
	1.416857083047507e-14
	1.097463211374350e+01
	4.000243853919561e-03
	1.097188331977569e+01
	4.758837993394362e+00
	2.640728091835717e-01
	6.955669067937691e-01
	2.640728098524546e-01
	8.794783744615602e-01
	1.129499590237924e+01
	1.257614740269291e+00
	1.200028977575281e+01