Title: kicad schematic
Date: Sat Nov 29 18:33:06  2025
Plotname: Transient Analysis
Flags: real
No. Variables: 65
No. Points: 1008    
Variables:
	0	time	time
	1	v(x2.net-_m14-pad2_)	voltage
	2	v(x2.net-_d2-pad2_)	voltage
	3	v(x2.net-_m19-pad3_)	voltage
	4	v(x2.net-_d1-pad2_)	voltage
	5	v(x2.net-_m21-pad3_)	voltage
	6	v(output2)	voltage
	7	v(x2.net-_m22-pad3_)	voltage
	8	v(x2.net-_m21-pad2_)	voltage
	9	v(x2.net-_m15-pad2_)	voltage
	10	v(x2.net-_m17-pad1_)	voltage
	11	v(x2.net-_m11-pad3_)	voltage
	12	v(x2.net-_m24-pad2_)	voltage
	13	v(control_voltage2)	voltage
	14	v(x2.net-_d1-pad1_)	voltage
	15	v(x2.net-_m3-pad1_)	voltage
	16	v(x2.net-_m5-pad3_)	voltage
	17	v(threshold2)	voltage
	18	v(x2.net-_m3-pad3_)	voltage
	19	v(x2.net-_m6-pad1_)	voltage
	20	v(x2.net-_m11-pad1_)	voltage
	21	v(x2.net-_m10-pad1_)	voltage
	22	v(x2.net-_m13-pad1_)	voltage
	23	v(x2.net-_m13-pad2_)	voltage
	24	v(trigger2)	voltage
	25	v(x2.net-_m4-pad3_)	voltage
	26	v(x2.net-_m7-pad1_)	voltage
	27	v(x2.net-_m12-pad2_)	voltage
	28	v(x2.net-_m12-pad1_)	voltage
	29	v(x2.net-_m14-pad3_)	voltage
	30	v(reset2)	voltage
	31	v(x2.net-_m1-pad2_)	voltage
	32	v(discharge2)	voltage
	33	v(x1.net-_m14-pad2_)	voltage
	34	v(x1.net-_d2-pad2_)	voltage
	35	v(x1.net-_m19-pad3_)	voltage
	36	v(x1.net-_d1-pad2_)	voltage
	37	v(x1.net-_m21-pad3_)	voltage
	38	v(output1)	voltage
	39	v(x1.net-_m22-pad3_)	voltage
	40	v(x1.net-_m21-pad2_)	voltage
	41	v(x1.net-_m15-pad2_)	voltage
	42	v(x1.net-_m17-pad1_)	voltage
	43	v(x1.net-_m11-pad3_)	voltage
	44	v(x1.net-_m24-pad2_)	voltage
	45	v(control_voltage1)	voltage
	46	v(x1.net-_d1-pad1_)	voltage
	47	v(x1.net-_m3-pad1_)	voltage
	48	v(x1.net-_m5-pad3_)	voltage
	49	v(threshold1)	voltage
	50	v(x1.net-_m3-pad3_)	voltage
	51	v(x1.net-_m6-pad1_)	voltage
	52	v(x1.net-_m11-pad1_)	voltage
	53	v(x1.net-_m10-pad1_)	voltage
	54	v(x1.net-_m13-pad1_)	voltage
	55	v(x1.net-_m13-pad2_)	voltage
	56	v(trigger1)	voltage
	57	v(x1.net-_m4-pad3_)	voltage
	58	v(x1.net-_m7-pad1_)	voltage
	59	v(x1.net-_m12-pad2_)	voltage
	60	v(x1.net-_m12-pad1_)	voltage
	61	v(x1.net-_m14-pad3_)	voltage
	62	v(reset1)	voltage
	63	v(x1.net-_m1-pad2_)	voltage
	64	v(discharge1)	voltage
Values:
0		0.000000000000000e+00
	-2.634933881922377e-14
	-7.159871398123020e-23
	1.077636227597924e-17
	-2.639475583131632e-14
	6.566549296638512e-30
	4.191870564011890e-18
	4.191861256196023e-18
	1.962837091739270e-18
	0.000000000000000e+00
	1.962837100964605e-18
	4.200487999525942e-23
	6.566547851997984e-30
	0.000000000000000e+00
	-2.634934686457625e-14
	-5.019734545382196e-19
	1.091325469770874e-26
	0.000000000000000e+00
	-2.015828762644039e-18
	-2.602598773042275e-24
	-2.012591933346848e-18
	1.274034155898320e-18
	4.153436386466994e-23
	1.572606425257191e-18
	0.000000000000000e+00
	1.264391443392697e-25
	1.279239767909161e-19
	-1.084254069434242e-18
	8.229980265021992e-27
	-4.118390399524141e-24
	0.000000000000000e+00
	1.791934366720663e-14
	-4.765084702600981e-15
	-2.634358048237124e-14
	6.065743829072016e-26
	1.400987964893752e-17
	-2.638866969549294e-14
	-1.957155896042648e-33
	-7.009559457516386e-19
	-7.009559378664327e-19
	-1.610717974346087e-18
	0.000000000000000e+00
	-1.610717981916462e-18
	1.132436501709094e-24
	-1.957155465468446e-33
	0.000000000000000e+00
	-2.634358851794540e-14
	-1.492736482636908e-18
	1.224351190254445e-26
	0.000000000000000e+00
	2.798154128277103e-19
	2.175932943768491e-24
	-4.099908499189590e-18
	1.274034155898320e-18
	1.397396606262850e-24
	-8.857672505948918e-19
	0.000000000000000e+00
	-1.974032405172338e-25
	4.852749619774258e-18
	2.558093649392039e-18
	-4.213090607259201e-26
	5.695810889154795e-26
	0.000000000000000e+00
	1.793273208424372e-14
	-4.753863213225573e-15
1		1.000000000000001e-09
	-2.634933878589483e-14
	-7.159585388906888e-23
	1.077673502845255e-17
	-2.639475504854623e-14
	4.807467520696147e-27
	4.191870526343190e-18
	4.191861256784683e-18
	1.962837111709377e-18
	-8.410616320217495e-27
	1.962839405688516e-18
	4.199410336254706e-23
	-1.044303087625355e-28
	-6.815453614661024e-29
	-2.634934604602807e-14
	-5.019734512271435e-19
	3.276152725756834e-27
	1.014880482714633e-29
	-2.015828762540478e-18
	-2.586417027177464e-24
	-2.012580726460603e-18
	1.274034186848957e-18
	3.844185628481694e-23
	1.572606447686501e-18
	8.668190109040853e-29
	7.464312490903403e-26
	1.279239766220910e-19
	-1.084254069256037e-18
	1.940311792890725e-27
	7.088095916182037e-24
	1.808742635460585e-24
	1.791934349906833e-14
	-4.765055944337889e-15
	-2.634358044902626e-14
	6.072100955511597e-26
	1.401023525663466e-17
	-2.638866891301090e-14
	4.822216354448561e-27
	-7.009559456486703e-19
	-7.009559378615949e-19
	-1.610717954383460e-18
	-1.533327396907207e-26
	-1.610715677115184e-18
	1.107912272412772e-24
	1.204655250516980e-30
	-1.269311656902880e-28
	-2.634358769969607e-14
	-1.492736479250349e-18
	3.600471714649437e-27
	1.075006247634899e-29
	2.798154130432779e-19
	2.137099663525592e-24
	-4.099885739754779e-18
	1.274034218916227e-18
	-4.219051701372116e-24
	-8.857672028287769e-19
	1.764917676197623e-28
	-1.164386200487153e-25
	4.852749619327414e-18
	2.558093648946690e-18
	-9.893260658901809e-27
	5.268790770047591e-24
	1.807445242768384e-24
	1.793273191593956e-14
	-4.753834510023589e-15
2		2.000000000000001e-09
	-2.634933871476434e-14
	-7.158926908274395e-23
	1.077747632539310e-17
	-2.639475349490403e-14
	1.649673365242857e-26
	4.191870451949632e-18
	4.191861257183646e-18
	1.962837190561509e-18
	-2.373997729465022e-26
	1.962843940496297e-18
	4.197226816643167e-23
	-3.215445189301325e-28
	-3.266765400830869e-28
	-2.634934442561302e-14
	-5.019734446908274e-19
	-2.688623167268844e-28
	3.057487062330590e-29
	-2.015828762207635e-18
	-2.554085955069788e-24
	-2.012556773039824e-18
	1.274034253059687e-18
	3.269566639199098e-23
	1.572606498055777e-18
	2.722026974025679e-28
	1.353903005725041e-26
	1.279239764098303e-19
	-1.084254068887275e-18
	-9.602627793189282e-28
	1.359649532154372e-23
	5.383961922371371e-24
	1.791934316262618e-14
	-4.764998428495219e-15
	-2.634358037875902e-14
	6.093853598044829e-26
	1.401079931998097e-17
	-2.638866762809911e-14
	1.487825196764340e-26
	-7.009559453529161e-19
	-7.009559378484169e-19
	-1.610717882388158e-18
	-4.325048324030154e-26
	-1.610711931993251e-18
	1.056240352940055e-24
	5.761009043076598e-30
	-6.047871052397193e-28
	-2.634358634761173e-14
	-1.492736473646123e-18
	-6.566323420650682e-28
	2.817484593971790e-29
	2.798154132738669e-19
	2.067003392124145e-24
	-4.099839006629112e-18
	1.274034348383221e-18
	-1.464087467663645e-23
	-8.857671016193649e-19
	5.392622482590525e-28
	-2.110263023848784e-26
	4.852749618234268e-18
	2.558093647998749e-18
	5.076753086330471e-27
	8.659163022162555e-24
	4.634001424716231e-24
	1.793273157917577e-14
	-4.753777104292679e-15
3		4.000000000000003e-09
	-2.634933852374188e-14
	-7.157029212627071e-23
	1.077931587609695e-17
	-2.639474964830118e-14
	4.651415756021043e-26
	4.191870268798299e-18
	4.191861255896739e-18
	1.962837501457818e-18
	-5.789987917400763e-26
	1.962855053018379e-18
	4.191687171947414e-23
	-8.491017710333821e-28
	-1.301948201720118e-27
	-2.634934041731211e-14
	-5.019734286546753e-19
	-1.020757460322302e-27
	8.139733408647471e-29
	-2.015828761153478e-18
	-2.473360555317877e-24
	-2.012492447103103e-18
	1.274034430936640e-18
	1.955226192233940e-23
	1.572606639699309e-18
	7.706114733719158e-28
	-6.403671074540201e-26
	1.279239761011595e-19
	-1.084254067958502e-18
	-1.516899810211363e-27
	1.826762762847311e-23
	1.420284841048353e-23
	1.791934232152219e-14
	-4.764854638894827e-15
	-2.634358019171911e-14
	6.175258896581035e-26
	1.401226944177374e-17
	-2.638866431314185e-14
	4.054967740258642e-26
	-7.009559443451372e-19
	-7.009559378023037e-19
	-1.610717605214861e-18
	-1.053830148286780e-25
	-1.610702360100725e-18
	9.275978442779704e-25
	2.367540766932074e-29
	-2.400034449532753e-27
	-2.634358286927689e-14
	-1.492736459329579e-18
	-1.405925466984651e-27
	7.161024166045494e-29
	2.798154135024717e-19
	1.892064334529368e-24
	-4.099718362646618e-18
	1.274034682649041e-18
	-3.844064940222641e-23
	-8.857668317303474e-19
	1.475885515342432e-27
	9.961627815485420e-26
	4.852749615149132e-18
	2.558093645582270e-18
	8.017697967600464e-27
	1.218317046658261e-23
	1.197262330982015e-23
	1.793273073726233e-14
	-4.753633589977045e-15
4		8.000000000000005e-09
	-2.634933799321807e-14
	-7.151148426247349e-23
	1.078365610586258e-17
	-2.639474062112231e-14
	1.142334660538243e-25
	4.191869844192771e-18
	4.191861240623311e-18
	1.962838850690693e-18
	-1.201044152759510e-25
	1.962880515473190e-18
	4.177957392930189e-23
	-2.034174752995135e-27
	-5.096237187055314e-27
	-2.634933103059459e-14
	-5.019733918574629e-19
	2.814453938048882e-28
	1.997391802549431e-28
	-2.015828758158100e-18
	-2.280397042391253e-24
	-2.012313967191563e-18
	1.274034924833398e-18
	-6.136562719265148e-24
	1.572607062784541e-18
	2.154510400907414e-27
	-9.159616130134737e-26
	1.279239758263853e-19
	-1.084254065732986e-18
	-2.955762757906053e-28
	2.428845749843305e-23
	3.471798923354853e-23
	1.791934030288039e-14
	-4.764509544235206e-15
	-2.634357968332416e-14
	5.472449797621785e-17
	1.401551637834800e-17
	-2.638865693965795e-14
	-2.622070801939176e-15
	5.381936858526540e-17
	7.367208468170477e-19
	-9.111811629288772e-18
	-2.181038487348753e-25
	-1.738712776353698e-18
	-3.803575246594719e-22
	-8.150328142496517e-19
	-5.217779390700090e-27
	-2.634357512713897e-14
	-1.492913187112740e-18
	-2.285054244670532e-23
	-5.291553415301470e-25
	2.798148908995761e-19
	1.011701904377936e-21
	-4.099408215408236e-18
	1.274034477832445e-18
	-8.476821013421312e-23
	-8.857660967106499e-19
	9.026908985426920e-28
	3.629829286369499e-25
	4.852749611819621e-18
	2.558095052664220e-18
	1.857740808462733e-25
	1.795514242984802e-23
	2.789749683627963e-23
	1.793272871669215e-14
	-4.753289155984642e-15
5		1.600000000000001e-08
	-2.634933641409388e-14
	-7.131585763877230e-23
	1.079342968991983e-17
	-2.639472052669285e-14
	2.486679146308797e-25
	4.191868919513819e-18
	4.191861149911656e-18
	1.962844681618915e-18
	-1.946914092156420e-25
	1.962934382176204e-18
	4.143922680719007e-23
	-4.439844686889171e-27
	-1.817797852877061e-26
	-2.634931023235590e-14
	-5.019733137681734e-19
	5.122013846026124e-28
	4.537385429080234e-28
	-2.015828750844106e-18
	-1.835576614549875e-24
	-2.011783482781656e-18
	1.274036394270324e-18
	-4.475863477271091e-23
	1.572608425796956e-18
	6.271899232628434e-27
	-3.868394183661673e-26
	1.279239755202638e-19
	-1.084254060560300e-18
	1.997344654398877e-28
	4.107093530408746e-23
	7.950835610822403e-23
	1.791933559275161e-14
	-4.763704325615998e-15
	-2.634357820894546e-14
	-1.261935413979528e-16
	1.402316942995995e-17
	-2.638863984712999e-14
	-5.719708855600545e-16
	-9.415134848478144e-17
	1.065205443221685e-16
	-3.161451344059953e-18
	-3.395999836264576e-25
	-2.034372960401982e-18
	-1.259329333322555e-21
	-3.633040098896246e-18
	3.522492488861181e-25
	-2.634355728867481e-14
	-1.493191094151757e-18
	4.403888589135149e-25
	-1.361736135907333e-24
	2.798140658731811e-19
	9.652083798568407e-20
	-4.098588329212358e-18
	1.274034296480338e-18
	-1.536478958857986e-22
	-8.857640050987788e-19
	3.938411198338490e-28
	-8.940911641489156e-26
	4.852749984634175e-18
	2.558228624980668e-18
	9.155136610449892e-24
	3.262268088782407e-23
	6.442243509443525e-23
	1.793272400203076e-14
	-4.752485478826938e-15
6		3.200000000000002e-08
	-2.634933135676961e-14
	-7.065440751953610e-23
	1.081413473760258e-17
	-2.639467896026941e-14
	4.639670599352495e-25
	4.191867050181970e-18
	4.191860727457177e-18
	1.962867982768586e-18
	-1.925154697766643e-25
	1.963034628038536e-18
	4.057918394394453e-23
	-8.605416514574666e-27
	-5.186940001400054e-26
	-2.634926766587308e-14
	-5.019731673269260e-19
	-3.136315612402267e-28
	9.381119493451995e-28
	-2.015828734433569e-18
	-8.543001446375141e-25
	-2.010086994303786e-18
	1.274041098397654e-18
	-7.786347148150954e-23
	1.572613038908366e-18
	1.945303911713410e-26
	1.037509956636538e-26
	1.279239745960512e-19
	-1.084254048792301e-18
	9.400138259047903e-29
	7.591832724843821e-23
	1.687320995077353e-22
	1.791932507988165e-14
	-4.761863580218637e-15
	-2.634357352207357e-14
	-3.001507659437851e-16
	1.408578177387302e-17
	-2.638860242039796e-14
	-6.991478535689841e-16
	-4.841448696543209e-16
	-4.394277080530695e-16
	-3.216460703977269e-18
	-3.371595623096098e-25
	-2.662166103193077e-18
	-3.115833821713918e-21
	-1.057801137499364e-17
	-4.976617359241209e-25
	-2.634351869737732e-14
	-1.494329106875709e-18
	-1.915692470553708e-23
	-4.770310830864428e-24
	2.798106977822654e-19
	-9.246074708615777e-20
	-4.096274628529310e-18
	1.274035531326023e-18
	-2.102610720925982e-22
	-8.857577216299668e-19
	3.853763047740518e-27
	7.315673960763385e-25
	4.852749164221270e-18
	2.557964281352198e-18
	-1.821672702379456e-23
	6.564705498476241e-23
	1.432554209302073e-22
	1.793271373639664e-14
	-4.750561737871980e-15
7		6.400000000000004e-08
	-2.634931457067350e-14
	-1.076079107059443e-23
	1.085558770864943e-17
	-2.639459990381034e-14
	4.619990347667505e-22
	4.191920169628780e-18
	4.191867516899049e-18
	1.986647868169318e-18
	-1.994148873133638e-21
	2.156537146964522e-18
	6.079516384859977e-22
	1.526269949420039e-24
	-1.842788716658254e-20
	-2.634918845576378e-14
	-7.742182483148801e-18
	-1.320782968782821e-19
	-2.158728607251018e-20
	-2.037056000135738e-18
	-5.202601393839654e-15
	-2.004464439843597e-18
	1.274058293627249e-18
	-5.183571417714069e-22
	1.572621912101092e-18
	6.763485519749139e-26
	3.603421605873054e-21
	1.064049689357468e-19
	-8.361025470433323e-18
	-1.327452699502514e-19
	1.336801102802250e-22
	3.231384232236393e-22
	1.791930136794486e-14
	-4.757635749934687e-15
	-2.634355796272859e-14
	1.373784770184127e-15
	1.421310763769121e-17
	-2.638852683798525e-14
	-4.414719477262252e-17
	1.612931832894284e-15
	-1.688159740275856e-15
	4.396521331343595e-18
	-3.970881919637595e-21
	-2.734697564824104e-18
	-3.283979072900817e-21
	-1.595929308540667e-17
	-3.669464247750197e-20
	-2.634344244070627e-14
	-1.605679965716041e-17
	-2.656129554771587e-19
	-4.362255362097897e-20
	2.367424709992574e-19
	-1.041160211650713e-14
	-4.089402885111004e-18
	1.274054144331566e-18
	-1.083577381534888e-21
	-8.857520126113327e-19
	5.600752792342786e-26
	1.264128864997733e-20
	4.810111810030818e-18
	-1.193203563950401e-17
	-2.666469320986504e-19
	1.202242493460686e-22
	2.886315057307596e-22
	1.793268974043886e-14
	-4.746429214568088e-15
8		1.280000000000001e-07
	-2.634926203686553e-14
	-1.620666641811759e-21
	1.092501155223768e-17
	-2.639448045726689e-14
	-7.722792423137555e-21
	4.190350402113227e-18
	4.191486535879287e-18
	1.247107176958722e-18
	-9.126939179605278e-21
	-1.570100265375265e-18
	-1.031985933015655e-20
	-4.620460441403115e-23
	-2.965241328383236e-20
	-2.634907479457095e-14
	-7.604117624628243e-17
	-4.991589918460144e-19
	1.098351538220358e-19
	1.107186156448921e-16
	-1.169085538896246e-14
	-1.986858733398067e-18
	1.274076657602783e-18
	-8.660666809877710e-22
	1.572650093619133e-18
	1.190933247758559e-25
	2.443382532515014e-18
	8.673024114269936e-20
	-1.746340908065213e-17
	4.647303015206030e-20
	1.902212150720112e-22
	4.927329038212847e-22
	1.791924879630050e-14
	-4.748435766152472e-15
	-2.634347023011419e-14
	1.241668309585021e-15
	1.458731293712867e-17
	-2.638794052133496e-14
	3.701837385775625e-17
	1.562293490921385e-15
	5.071147709659764e-16
	6.671446475547641e-16
	-4.678395788653971e-20
	1.875514425754816e-16
	5.563289648878352e-19
	-3.888667745977022e-17
	-2.198679002093956e-19
	-2.634287594367526e-14
	-2.150050739580153e-17
	8.366777620636867e-18
	-5.265698979247244e-20
	2.667273095339406e-18
	-1.353755186003886e-14
	-4.025440601940870e-18
	1.275795699309508e-18
	-5.994940704232369e-21
	-8.857062915510388e-19
	4.935888725351830e-24
	8.254394706109065e-16
	6.982459841324203e-18
	-1.048060843280114e-16
	1.978171837258975e-16
	-3.995671035049064e-22
	1.723463425073344e-21
	1.793263812909545e-14
	-4.736900840939035e-15
9		2.280000000000002e-07
	-2.634917331783995e-14
	5.744388031645597e-17
	1.090145659756923e-17
	-2.639454250895643e-14
	-1.888013767062332e-16
	5.897882450512656e-17
	2.325887387800576e-17
	-3.054484705434749e-17
	-6.273433195963147e-21
	-9.982634165050912e-17
	-2.970524075234076e-19
	-1.583203251665848e-18
	1.999070308666965e-20
	-2.634914593589479e-14
	2.146053848451125e-16
	-1.107834145508759e-17
	-5.913950434321899e-19
	-4.172424393826217e-16
	-4.319030528861712e-15
	-1.824577959563252e-18
	1.273726546672586e-18
	-1.438378337078261e-20
	1.573071969402907e-18
	-8.619311742668333e-25
	-9.759419690124981e-18
	8.969483501612444e-20
	-4.242869368049106e-18
	-1.325686790066013e-17
	-5.829972384183835e-22
	4.167832636847076e-23
	1.791915861012028e-14
	-4.732275451474594e-15
	-2.634276115614486e-14
	6.084563479798936e-16
	1.726375961025008e-17
	-2.638362823179079e-14
	1.341918834786385e-17
	1.119650102061712e-15
	1.154233226034454e-15
	1.728996738266664e-15
	-9.656199162758946e-21
	1.375572203482955e-15
	3.990001488347202e-18
	-7.496848405013625e-17
	2.217004477712907e-19
	-2.633881975141088e-14
	-1.036190931148117e-17
	2.464940390107552e-19
	-3.343392592125276e-20
	-2.056502579690773e-18
	-5.230197117309755e-15
	-3.752513819813809e-18
	1.286149509764377e-18
	1.188867307416688e-20
	-8.850600961976821e-19
	3.394782317616230e-23
	-7.793085162957975e-16
	2.680011929115991e-18
	4.844998383170737e-17
	-2.077107415147322e-16
	4.585640278378581e-21
	1.277746538948414e-20
	1.793254707929831e-14
	-4.721041019084687e-15
10		3.280000000000002e-07
	-2.634905704441640e-14
	-3.177606825441129e-16
	1.102430673439055e-17
	-2.639426264421745e-14
	1.861860317461678e-16
	-3.021378717770868e-16
	-7.783598858227668e-17
	-6.629365518281179e-17
	3.297789069298684e-20
	-7.626862032743095e-17
	-2.158581918678412e-19
	-2.641815510999316e-18
	1.500154391701543e-19
	-2.634888403461521e-14
	-8.696596501371436e-17
	-6.133781707135335e-17
	-3.495988308159578e-18
	-1.093462113779786e-15
	-7.728786328082317e-15
	-1.849847682204531e-18
	1.273883066356740e-18
	2.348840157033749e-20
	1.573214307155031e-18
	-4.233772366024964e-25
	-5.320534812517120e-16
	5.507876270227513e-17
	7.284327060004829e-18
	-5.818916227062139e-17
	8.006708317719774e-22
	4.965183529124113e-22
	1.791906034029105e-14
	-4.714960529775213e-15
	-2.634272619375697e-14
	6.638220525686243e-16
	-3.971132773813527e-16
	-2.638740008135847e-14
	-1.190836955635467e-16
	7.775056865899937e-16
	1.174662692547591e-15
	1.287926689844234e-15
	5.938251116956704e-20
	1.296001778305815e-15
	5.851121102084203e-18
	-1.108279928710512e-16
	1.952690722560508e-19
	-2.634283706481818e-14
	-2.541819445077509e-17
	6.091583676984496e-17
	9.909113859849449e-20
	5.723288833946061e-17
	-6.715845021507768e-15
	-2.947719250672220e-16
	4.821764651984782e-19
	4.469844847314225e-19
	-1.693076165865998e-18
	-2.218815758550673e-21
	1.795300444730374e-16
	-5.042433133281155e-17
	1.255350954454844e-16
	1.385855797907927e-16
	2.620784096810259e-20
	1.309844853466862e-21
	1.793245174347156e-14
	-4.703303265536016e-15
11		4.280000000000003e-07
	-2.634890142819547e-14
	-7.319276373382633e-16
	1.115637843349087e-17
	-2.639399475740241e-14
	-6.434124474784399e-17
	-6.960092250735813e-16
	-3.937802778029726e-16
	-1.102482155282439e-16
	6.825971906124915e-20
	-1.245194825898217e-16
	-3.417185658860019e-19
	-4.357676016966460e-18
	1.276707992799137e-19
	-2.634864711437884e-14
	-9.991957455052219e-17
	1.229022455842228e-16
	-1.931878117308121e-18
	-5.606586869456133e-16
	-8.080382884770844e-15
	-1.825467715625139e-18
	1.273599052520993e-18
	6.495443935296731e-21
	1.573332981255413e-18
	-1.219176646718546e-24
	5.294154349723063e-16
	1.146706591544085e-16
	-1.985855119067054e-17
	5.732515792452071e-17
	2.600714239239622e-22
	8.576769768577224e-22
	1.791895348490180e-14
	-4.695785534201716e-15
	-2.636202897533637e-14
	7.698846936305039e-16
	-1.798758016198703e-14
	-2.642910566176046e-14
	7.831885038568293e-18
	1.101997310629847e-15
	1.091114577031902e-15
	1.067848383365932e-15
	1.297171704360112e-19
	1.154345566529879e-15
	9.721023448125945e-18
	-1.432965915709328e-16
	2.693485701703253e-19
	-2.638354414308266e-14
	-1.030394184112193e-16
	1.083037175550068e-17
	-1.535137609040530e-18
	-4.149173735123801e-16
	-6.519289906323482e-15
	-8.722181468519057e-16
	3.182180088274274e-17
	6.117157478505609e-19
	-3.298232894340006e-18
	8.514640471546517e-20
	2.979492194381295e-16
	-4.931473703209969e-17
	2.198316036626450e-16
	-5.814547044803310e-17
	-9.440809172024576e-20
	-1.124540903665290e-19
	1.793235609132784e-14
	-4.684508297624830e-15
12		5.280000000000004e-07
	-2.634851350165662e-14
	-5.217947183495522e-16
	1.227806371573791e-17
	-2.639215124063190e-14
	6.318375973300484e-17
	-6.485360115181846e-16
	-8.225137025538082e-16
	-1.398212011213929e-16
	3.147871143608805e-19
	-1.137215812731248e-16
	-2.856969973088177e-19
	-4.127711339892649e-18
	1.119183205815002e-18
	-2.634692497051113e-14
	-1.160962279639849e-16
	-1.252856894039488e-16
	-8.068137208605575e-18
	-2.614844481881756e-15
	-3.569510534003370e-15
	-1.695531162350360e-18
	1.274116761857503e-18
	1.515681826163132e-20
	1.574665629065159e-18
	2.314450262176786e-25
	2.819570328971619e-17
	6.982735756081843e-16
	-4.173375535720851e-17
	1.514950652294422e-17
	2.479088859504886e-22
	5.339717252862851e-21
	1.791883946843661e-14
	-4.675554915863997e-15
	-2.631075798825618e-14
	5.670763119994841e-16
	-6.571795566744350e-14
	-2.631613242533596e-14
	-5.874973707006865e-18
	1.060703646022806e-15
	1.097959802261634e-15
	1.563330439998875e-15
	3.291052799656852e-19
	1.193385421619294e-15
	1.535473833671679e-17
	-1.752724722996227e-16
	1.152372869255476e-18
	-2.627185171399623e-14
	-4.983215068629881e-16
	-1.258783614751626e-17
	-5.081913625938844e-18
	-1.211241436518269e-15
	-2.869818719222089e-15
	-1.431025002070028e-15
	6.321879164676813e-17
	-2.920226303775879e-17
	-4.931900523004108e-18
	1.726708894453720e-19
	-2.815364089804899e-16
	6.857010649515182e-16
	4.213485379299587e-17
	-3.015032566918653e-18
	-1.378219520264717e-18
	1.985976755367142e-19
	1.793222898613305e-14
	-4.663876523207110e-15
13		6.280000000000005e-07
	-2.634871251270147e-14
	-1.125287379301785e-15
	-4.021296571317618e-16
	-2.639529766235110e-14
	-6.277256792568256e-17
	-1.082448047932561e-15
	-1.405842466223083e-15
	-1.667798093261792e-16
	3.311943602148694e-19
	-1.534983442679311e-16
	-3.730867047918015e-19
	-5.866083362671323e-18
	1.289749886445118e-19
	-2.635010934393782e-14
	5.268704081057964e-18
	6.067388640903215e-17
	-7.819601156086862e-18
	-2.667980684891692e-15
	-8.367374386624661e-15
	-1.725867972686913e-18
	1.273788100978759e-18
	5.300589191635218e-21
	1.574334430568638e-18
	-6.894388150507829e-25
	5.845776950245680e-16
	4.921338216082105e-16
	4.004073613207239e-17
	-1.363695210763120e-17
	-3.735475207991322e-21
	-3.883093498987922e-21
	1.791871651046416e-14
	-4.653478268839723e-15
	-2.594365225515013e-14
	7.282654278046518e-16
	-2.515836090848595e-14
	-2.633048443173642e-14
	3.910480548160503e-18
	8.909991463845117e-16
	9.586238997815166e-16
	1.798119529193689e-15
	-9.678214320173768e-19
	1.388117168965087e-15
	2.017591022794160e-17
	-2.056759161311847e-16
	1.018282063122774e-18
	-2.626882859512362e-14
	-1.588994393285502e-16
	1.460486703522012e-17
	-4.682343728910227e-18
	-1.417519839582836e-15
	-4.352696287530470e-15
	-1.006434878244471e-15
	9.734722318664970e-17
	-1.080836713697540e-15
	2.148028470542684e-17
	2.678497319147046e-19
	-5.519611388656937e-18
	1.272980826178192e-15
	1.376712091935536e-17
	-7.290266226598091e-17
	6.312095950858275e-16
	2.064194456699427e-19
	1.793200969404176e-14
	-4.642210513011589e-15
14		7.280000000000006e-07
	-2.636919556138876e-14
	-3.702809028392148e-16
	-1.923561866161319e-14
	-2.643747404472754e-14
	6.177822442345793e-17
	2.578801539877917e-17
	-2.133502071114807e-16
	-1.706436811595497e-16
	7.230144690298225e-20
	-1.287382362311973e-16
	-2.617151822989186e-19
	-2.400359160308300e-18
	-4.936936555398962e-19
	-2.639105920757068e-14
	6.521717120358212e-17
	1.197711131281913e-17
	-8.201718958061668e-18
	-2.871221784761078e-15
	-1.006202402852571e-14
	-8.573281384740972e-18
	1.255060069606898e-18
	1.576937669392654e-20
	1.553811933367943e-18
	-5.316615196260654e-23
	5.699888372341240e-17
	2.811559760552910e-16
	1.380343887876745e-16
	-5.727711836016860e-17
	-1.315043612427457e-19
	-1.184042469931742e-19
	1.791859215802010e-14
	-4.630264912884383e-15
	-2.619091922853046e-14
	6.151069135757886e-16
	-6.850758637282245e-14
	-2.612685305174867e-14
	-2.224868882586616e-17
	2.108635790432613e-16
	3.342684860463596e-16
	1.469450022644169e-15
	2.902387192483966e-18
	1.205885334078455e-15
	1.805299409291943e-17
	-2.356067209811725e-16
	6.335217407107424e-19
	-2.605571765128796e-14
	-2.950251215342237e-16
	5.930111149609792e-17
	-1.929133193296961e-18
	-3.623476262722919e-16
	-4.995794837953618e-15
	3.451601853693238e-15
	1.378498616608849e-16
	-5.862683307169727e-16
	1.149449497615997e-15
	3.808892592588064e-19
	-2.286784744657275e-16
	1.478670029800275e-15
	1.310083803712540e-17
	-3.648777598980694e-18
	1.820021279081295e-17
	8.009876405328860e-19
	1.793215090719978e-14
	-4.618411648442754e-15
15		8.280000000000007e-07
	-2.619888588501834e-14
	-1.135909236765891e-15
	-6.638323331210925e-14
	-2.533459795373186e-14
	6.913766438283012e-17
	-5.174616570811181e-16
	2.120149717282201e-16
	4.275964668192413e-16
	-9.053817469610904e-21
	-4.330803145264286e-18
	1.402702879936606e-19
	-3.169879959247096e-18
	3.932191494491274e-19
	-2.533666924367142e-14
	2.596287141688440e-16
	-8.674159096723830e-17
	-6.166168179465031e-18
	-2.398746259294049e-15
	-3.897347430038899e-15
	4.839172234830782e-17
	1.414572959066313e-18
	-1.059446431549472e-19
	1.711375554491228e-18
	3.937941993564797e-22
	-6.549372778229498e-16
	6.580768950428652e-16
	2.358765758131053e-16
	5.716350289209636e-17
	1.214262009039403e-18
	2.820814551359091e-18
	1.791840376164535e-14
	-4.605361133287721e-15
	-2.551296214857349e-14
	9.619259554418743e-16
	-6.251494261826198e-14
	-2.610008567740546e-14
	1.214130899051629e-17
	2.607305649256631e-16
	3.844925389105738e-16
	1.775278736976300e-15
	3.602823211860074e-18
	1.592687163373318e-15
	-8.292500732553127e-18
	-2.608115423272811e-16
	1.806746198266277e-18
	-2.599193984505195e-14
	-2.414755938836820e-16
	1.221758623700581e-17
	-5.671843080867427e-18
	-1.682770550707988e-15
	-1.803009606137194e-15
	2.728300385988935e-14
	2.324209145084159e-16
	3.610332690463618e-16
	1.526661237593360e-15
	6.454313759217981e-19
	2.094594870824458e-16
	2.064877615350502e-15
	3.268473373764330e-17
	-6.228330975062101e-17
	-3.967114481349531e-16
	9.781737836311264e-19
	1.793192073070240e-14
	-4.593785360900030e-15
16		9.280000000000008e-07
	-2.566599755781837e-14
	-1.218115013810667e-15
	-2.690406517012799e-14
	-2.628129860332359e-14
	6.119219909079396e-17
	-7.574032667255052e-16
	-6.359251809103629e-16
	9.078192031173700e-16
	-1.820748664658648e-18
	2.543373456252184e-17
	-2.865324736547025e-17
	-2.440287965914347e-18
	-7.253875473732881e-19
	-2.647062730372279e-14
	-2.389910945899306e-16
	7.747858608996866e-17
	-7.407544183520988e-18
	-2.333670704545750e-15
	-7.922907782102268e-15
	2.808831363189616e-14
	7.968787526546918e-17
	-1.147379222003148e-15
	7.692376879814901e-17
	2.197186745084671e-19
	6.203275216572149e-16
	7.739448062712532e-16
	2.270606291697220e-17
	-6.299362611401638e-17
	-3.861753498784263e-16
	-3.412922536447155e-19
	1.791819870968793e-14
	-4.579352484757188e-15
	-2.495407778826694e-14
	6.979075695879840e-16
	-3.705314736605962e-14
	-2.753270416393990e-14
	-1.916190204496525e-17
	-5.071358199512748e-16
	7.583989850508012e-18
	1.842825093588358e-15
	6.461406751135465e-18
	2.326668394938226e-15
	-7.171275098202373e-20
	-2.859588781725466e-16
	2.242698757850646e-18
	-2.708002494133622e-14
	-3.741916102135499e-16
	-2.226095278094773e-17
	-3.043155773951741e-18
	-6.843156465770600e-16
	-4.054550500149716e-15
	3.143629859236455e-14
	3.051721803672174e-15
	1.855148324743750e-16
	5.435288832525483e-15
	8.544776231891165e-18
	2.682756095847495e-16
	2.006392103203627e-15
	2.156778409059055e-17
	-9.761973043837340e-18
	4.294018673823828e-16
	-2.053493421166700e-18
	1.793264507125806e-14
	-4.566873726082795e-15
17		1.028000000000001e-06
	-2.704067239132319e-14
	-9.473261074503496e-16
	-7.390900948916286e-14
	-2.836362982612870e-14
	-6.111321358096010e-17
	-7.361712379956849e-16
	-2.208388448151173e-15
	8.319221033232491e-16
	2.939831019346322e-18
	1.378710729344913e-15
	-2.109493928628229e-17
	-1.486699518316584e-18
	-6.074488446599186e-19
	-2.812162966198655e-14
	-1.082606608598162e-16
	2.990557236464920e-18
	-7.139042813259404e-18
	-2.389474067322592e-15
	-8.728184113868853e-15
	-4.159122426043720e-14
	4.360977702641194e-16
	7.758496169117338e-16
	4.409891350724621e-16
	1.218397339983577e-18
	-5.391001884966617e-17
	6.206646879735278e-16
	-3.759821448252142e-17
	-1.485330625326936e-17
	4.159396280630129e-16
	-4.937193900235046e-18
	1.792082486328851e-14
	-4.548575159310272e-15
	-2.539076351018519e-14
	8.540716306909866e-16
	-8.110343145412006e-14
	-2.648780453272861e-14
	-1.252570934436510e-17
	-5.928972327407709e-16
	-1.351111950399916e-16
	1.434278449467675e-15
	7.956050125480311e-16
	5.303567820480323e-16
	-3.186780203933596e-17
	-1.094502030687526e-15
	2.040237749928424e-16
	-2.549973317831061e-14
	-2.969656666316525e-16
	2.185515108913999e-17
	-6.068995660957864e-18
	-1.798854310148762e-15
	-5.027652129204030e-15
	5.296625967730685e-14
	3.135983874223952e-15
	4.356043452024320e-17
	6.085804504756622e-15
	-1.384839981538049e-15
	-2.677069558194275e-16
	2.059851860497475e-15
	5.185036685088852e-17
	-6.154133700545293e-17
	-3.924532340028111e-16
	2.352069369375114e-18
	1.793250530161727e-14
	-4.539134168857012e-15
18		1.128000000000001e-06
	-2.783494147171129e-14
	-1.979351170577467e-15
	-6.936508280812893e-14
	-2.830313174244667e-14
	6.395084341736908e-17
	-2.068317435715570e-15
	-2.560530141589581e-15
	1.422801341598197e-15
	1.413015133992883e-17
	2.350017612249961e-15
	1.727567633382341e-16