Title: kicad schematic
Date: Tue Jun 30 02:40:20  2026
Plotname: Transient Analysis
Flags: real
No. Variables: 24
No. Points: 91      
Variables:
	0	time	time
	1	v(net-_x1-pad5_)	voltage
	2	v(inp)	voltage
	3	v(net-_c1-pad1_)	voltage
	4	v(net-_r2-pad1_)	voltage
	5	v(net-_r2-pad2_)	voltage
	6	v(x1.net-_q3-pad1_)	voltage
	7	v(x1.net-_d3-pad2_)	voltage
	8	v(x1.net-_q6-pad1_)	voltage
	9	v(net-_x1-pad8_)	voltage
	10	v(x1.net-_q4-pad3_)	voltage
	11	v(x1.net-_q2-pad2_)	voltage
	12	v(x1.net-_r11-pad2_)	voltage
	13	v(x1.net-_q5-pad2_)	voltage
	14	v(x1.net-_r1-pad1_)	voltage
	15	v(x1.net-_d1-pad1_)	voltage
	16	v(q.x1.q1#collCX)	voltage
	17	v(q.x1.q2#collCX)	voltage
	18	v(q.x1.q5#collCX)	voltage
	19	v(q.x1.q4#collCX)	voltage
	20	v(q.x1.q6#collCX)	voltage
	21	v(q.x1.q3#collCX)	voltage
	22	i(v1)	current
	23	i(v2)	current
Values:
0		0.000000000000000e+00
	1.200000000000000e+01
	0.000000000000000e+00
	6.487871020706035e-01
	1.341915701012022e+00
	2.181899038048165e+00
	1.199356623394310e+01
	7.705518333675354e-01
	1.150626893029136e+01
	1.526079096884516e+00
	1.918344394052672e-01
	-3.144236773054183e-67
	-2.096157848704734e-67
	-3.144236773060018e-67
	8.433358015786594e-01
	4.155008837845895e-01
	1.340789535687857e+00
	3.693133057995023e-72
	3.693133058015790e-72
	2.181822881258985e+00
	1.150462316005900e+01
	1.199350189628253e+01
	0.000000000000000e+00
	-2.961914953474580e-03
1		7.500000000000001e-06
	1.200000000000000e+01
	9.424769240256487e-04
	6.496319404132825e-01
	1.263956126372082e+00
	2.180806712673594e+00
	1.199421284499391e+01
	6.953698283018575e-01
	1.150661617877530e+01
	1.525005557345578e+00
	1.272235046408516e-01
	-9.657047634546198e-70
	-6.438031756364946e-70
	-9.657047634548642e-70
	8.091030549028786e-01
	4.122394796117098e-01
	1.262794115819531e+00
	1.604476846349932e-74
	1.604476846351040e-74
	2.180756132338121e+00
	1.150497156603788e+01
	1.199415497344385e+01
	-1.301847751287999e-06
	-2.960828435735398e-03
2		1.500000000000000e-05
	1.200000000000000e+01
	1.884948615749369e-03
	6.503872506397462e-01
	1.187959188773980e+00
	2.174041092945126e+00
	1.199483530279571e+01
	6.223425010708326e-01
	1.150876704534030e+01
	1.518356697204411e+00
	6.979743509413890e-02
	9.597727240547932e-70
	6.398484827032766e-70
	9.597727240550370e-70
	7.756189296043885e-01
	4.088174627855768e-01
	1.186764187303704e+00
	-1.594621018534507e-74
	-1.594621018535613e-74
	2.174013305760500e+00
	1.150712960215810e+01
	1.199478365582367e+01
	-2.495486203468039e-06
	-2.954017959142369e-03
3		3.000000000000000e-05
	1.200000000000000e+01
	3.769855373257603e-03
	6.516737977851381e-01
	9.923904629898844e-01
	2.073517661348366e+00
	1.199642854050919e+01
	4.363958292645133e-01
	1.154070448341391e+01
	1.419627631440575e+00
	-2.578733880286803e-04
	4.538058504630698e-74
	3.025372336420521e-74
	4.538058504630867e-74
	6.887685658883336e-01
	3.986356753697630e-01
	9.911382887002920e-01
	-7.539788633109169e-79
	-7.539788633109496e-79
	2.073517334477442e+00
	1.153917349835863e+01
	1.199639282591428e+01
	-5.482641958081541e-06
	-2.851647938970031e-03
4		4.978401185350559e-05
	1.200000000000000e+01
	6.255788387738683e-03
	6.526873107070384e-01
	7.235532748439762e-01
	1.835285240356604e+00
	1.199845470903501e+01
	1.892938690090211e-01
	1.161626447689484e+01
	1.186172041636403e+00
	-6.324800879307954e-04
	-2.295924984745033e-72
	-1.530616656496618e-72
	-2.295924984744822e-72
	5.671647397729038e-01
	3.796770879985099e-01
	7.222560883022038e-01
	3.814580369773330e-77
	3.814580369773330e-77
	1.835285248074457e+00
	1.161498535848449e+01
	1.199843925612536e+01
	-9.402307601023147e-06
	-2.610746130787205e-03
5		6.181043072068288e-05
	1.200000000000000e+01
	7.766839672714006e-03
	6.529948002343769e-01
	6.384543045226576e-01
	1.759420241983097e+00
	1.199903959478230e+01
	1.165309016442959e-01
	1.164028011750802e+01
	1.112018277572525e+00
	-9.879652322715885e-05
	-1.729276411245545e-74
	-1.152850940830357e-74
	-1.729276411245526e-74
	5.278420293709176e-01
	3.717196557233743e-01
	6.371431323576011e-01
	2.873118254383353e-79
	2.873118254383258e-79
	1.759420236767844e+00
	1.163908105123305e+01
	1.199902999073012e+01
	-1.061298990240322e-05
	-2.534746533551753e-03
6		7.471295723535442e-05
	1.200000000000000e+01
	9.387845049728746e-03
	6.531923847096559e-01
	5.843732199669543e-01
	1.711435623291655e+00
	1.199939236887647e+01
	7.435123374393422e-02
	1.165543272121078e+01
	1.065173250967123e+00
	-2.783626464005883e-04
	9.896964870047506e-75
	6.597976580031688e-75
	9.896964870047559e-75
	5.025410561583075e-01
	3.659265910582614e-01
	5.830530621948042e-01
	-1.644338070067053e-79
	-1.644338070067018e-79
	1.711435632923790e+00
	1.165428416361481e+01
	1.199938629256523e+01
	-1.145122984738678e-05
	-2.486994078746927e-03
7		9.021179350799032e-05
	1.200000000000000e+01
	1.133483080249441e-02
	6.533238593400016e-01
	5.468889979767388e-01
	1.677943014063731e+00
	1.199960257332120e+01
	4.778173078511170e-02
	1.166601858806565e+01
	1.032504480120480e+00
	8.090770089612874e-05
	1.228698523634528e-76
	8.191323490896297e-77
	1.228698523634361e-76
	4.848220269406066e-01
	3.614816623046946e-01
	5.455627642735806e-01
	-2.041429642353795e-81
	-2.041429642353592e-81
	1.677943008820889e+00
	1.166490531669254e+01
	1.199959859905441e+01
	-1.197647905260696e-05
	-2.453969963624321e-03
8		1.057704601710929e-04
	1.200000000000000e+01
	1.328906218831126e-02
	6.533908680195994e-01
	5.287295992798366e-01
	1.661914918921807e+00
	1.199969897648999e+01
	3.689761716858406e-02
	1.167106572410300e+01
	1.016879694270300e+00
	-1.578676768552461e-04
	-2.776991847556892e-77
	-1.851327898371269e-77
	-2.776991847556916e-77
	4.761801727083381e-01
	3.591904932963811e-01
	5.274003181259516e-01
	4.613852270719811e-82
	4.613852270719852e-82
	1.661914927415789e+00
	1.166996927651668e+01
	1.199969596625489e+01
	-1.228296100204071e-05
	-2.438289061523421e-03
9		1.284705128586608e-04
	1.200000000000000e+01
	1.613969816058808e-02
	6.534346229193128e-01
	5.156880478555467e-01
	1.650176715556785e+00
	1.199975633621610e+01
	2.920027277766874e-02
	1.167477901840609e+01
	1.005440381522311e+00
	1.185436891565238e-04
	-3.448343366944349e-79
	-2.298895577962928e-79
	-3.448343366944434e-79
	4.699429314667575e-01
	3.574735636406755e-01
	5.143567125303690e-01
	5.729273780352574e-84
	5.729273780352531e-84
	1.650176708810717e+00
	1.167369494846745e+01
	1.199975389957826e+01
	-1.244721131250012e-05
	-2.426859360810115e-03
10		1.508335779233191e-04
	1.200000000000000e+01
	1.894721384161769e-02
	6.534492095943341e-01
	5.122300235198010e-01
	1.647227753442642e+00
	1.199977388372331e+01
	2.780099436036361e-02
	1.167569891758437e+01
	1.002567186576603e+00
	-1.243137448448795e-04
	3.824009053324845e-80
	2.549339368883036e-80
	3.824009053324264e-80
	4.682878483794511e-01
	3.570142691609621e-01
	5.108980500502801e-01
	-6.353426121690529e-85
	-6.353426121689835e-85
	1.647227760865900e+00
	1.167461791397632e+01
	1.199977162256055e+01
	-1.253084064892045e-05
	-2.424014944657372e-03
11		1.955597080526358e-04
	1.200000000000000e+01
	2.455930106599041e-02
	6.534554336584092e-01
	5.097969822625080e-01
	1.644933968677142e+00
	1.199978190039980e+01
	2.616593943702232e-02
	1.167643242226748e+01
	1.000332244286620e+00
	1.196244552247182e-04
	2.995387571296495e-82
	1.996925047530916e-82
	2.995387571296252e-82
	4.671186469957529e-01
	3.566814802153045e-01
	5.084646870139197e-01
	-4.976706978437569e-87
	-4.976706978437266e-87
	1.644933961392371e+00
	1.167535386367504e+01
	1.199977971940380e+01
	-1.253666751281635e-05
	-2.421777470711579e-03
12		2.468031248953068e-04
	1.200000000000000e+01
	3.098312975993141e-02
	6.534527955267868e-01
	5.111973861449145e-01
	1.646306675229913e+00
	1.199977832867327e+01
	2.724998131859249e-02
	1.167598965812704e+01
	1.001669579139436e+00
	-1.167543697181344e-04
	-7.288888426908022e-82
	-4.859258951272100e-82
	-7.288888426908280e-82
	4.677938667980918e-01
	3.568780097317435e-01
	5.098652460845727e-01
	1.211017286595484e-86
	1.211017286595295e-86
	1.646306682452635e+00
	1.167490962365413e+01
	1.199977611196000e+01
	-1.254544926052124e-05
	-2.423121527138107e-03
13		3.492899585806488e-04
	1.200000000000000e+01
	4.380503575126318e-02
	6.534449735447512e-01
	5.127353746470438e-01
	1.647547511580172e+00
	1.199976955081593e+01
	2.767906705338039e-02
	1.167560830453359e+01
	1.002878571917285e+00
	1.169581718364062e-04
	-2.371795700502238e-83
	-1.581197133668110e-83
	-2.371795700502093e-83
	4.685280848871504e-01
	3.570782901608566e-01
	5.114035614597591e-01
	3.940635451329738e-88
	3.940635451329782e-88
	1.647547504272610e+00
	1.167452699888203e+01
	1.199976724632409e+01
	-1.249138232461196e-05
	-2.424306361745963e-03
14		5.404716575452638e-04
	1.200000000000000e+01
	6.759179653044518e-02
	6.534229177397439e-01
	5.195750888503584e-01
	1.653756526977697e+00
	1.199974172583756e+01
	3.167893491196803e-02
	1.167364047524393e+01
	1.008928598011138e+00
	-1.144881996700896e-04
	5.918990720237160e-84
	3.945993813491438e-84
	5.918990720237153e-84
	4.718067308961370e-01
	3.579961231806041e-01
	5.182443240598755e-01
	-9.834143523553999e-89
	-9.834143523554402e-89
	1.653756534164701e+00
	1.167255261016141e+01
	1.199973914309594e+01
	-1.241562154984967e-05
	-2.430344102778301e-03
15		9.228350554744939e-04
	1.200000000000000e+01
	1.143491461253993e-01
	6.533496441669395e-01
	5.394254590547349e-01
	1.671283362671564e+00
	1.199964272943714e+01
	4.304574338986143e-02
	1.166812174362314e+01
	1.026011615240435e+00
	1.177533809098329e-04
	3.437858327505593e-88
	2.291905551670337e-88
	3.437858327505419e-88
	4.812737563741938e-01
	3.605490035871998e-01
	5.380980298574344e-01
	-5.711848035746127e-93
	-5.711848035745845e-93
	1.671283355319050e+00
	1.166701548276855e+01
	1.199963915673152e+01
	-1.207972681318886e-05
	-2.447426499272010e-03
16		1.687561851332954e-03
	1.200000000000000e+01
	2.022696548881828e-01
	6.530857552378060e-01
	6.133436330616088e-01
	1.737148319325701e+00
	1.199920710238108e+01
	9.637908253427709e-02
	1.164731578698360e+01
	1.090269481215176e+00
	-1.097528861468643e-04
	-1.564113964654758e-89
	-1.042742643103129e-89
	-1.564113964654630e-89
	5.161279267188259e-01
	3.691093736418685e-01
	6.120283102437247e-01
	2.598702915115893e-94
	2.598702915115734e-94
	1.737148326509562e+00
	1.164614017294021e+01
	1.199919917340489e+01
	-1.098325415452363e-05
	-2.512536667958139e-03
17		2.687561851332954e-03
	1.200000000000000e+01
	2.990084935692285e-01
	6.524773050592150e-01
	7.786091468057647e-01
	1.884007449702613e+00
	1.199803011218062e+01
	2.380290704855147e-01
	1.160085717271395e+01
	1.233848290875497e+00
	1.272961444245630e-04
	-3.754911390095979e-94
	-2.503274260063967e-94
	-3.754911390095923e-94
	5.923401809680667e-01
	3.842031700063149e-01
	7.773212732475155e-01
	6.238607588011010e-99
	6.238607588010855e-99
	1.884007442315255e+00
	1.159952669662299e+01
	1.199801041330242e+01
	-8.486203617403740e-06
	-2.659957264331948e-03
18		3.687561851332954e-03
	1.200000000000000e+01
	3.664782975850418e-01
	6.516112905018092e-01
	1.006648715346570e+00
	2.085642040668099e+00
	1.199628298664889e+01
	4.495712454448902e-01
	1.153686674737538e+01
	1.431529120790136e+00
	1.165149595960066e-03
	1.209276114796351e-95
	8.061840765308932e-96
	1.209276114796329e-95
	6.951373981625163e-01
	3.994537564914471e-01
	1.005399169536437e+00
	-2.009155040427245e-100
	-2.009155040427176e-100
	2.085641552383910e+00
	1.153532296986663e+01
	1.199624581651538e+01
	-5.180960097240101e-06
	-2.864258692252490e-03
19		4.687561851332954e-03
	1.200000000000000e+01
	3.980746524287884e-01
	6.498137840303568e-01
	1.246171773538068e+00
	2.180191585873111e+00
	1.199434918884280e+01
	6.781917407871527e-01
	1.150681696735372e+01
	1.524400936765988e+00
	1.131906620461810e-01
	1.847321948903614e-112
	1.231547965935736e-112
	1.847321948903595e-112
	8.012761521969438e-01
	4.114577556436694e-01
	1.245001779940283e+00
	-3.069238000749394e-117
	-3.069238000749362e-117
	2.180146720120142e+00
	1.150517302391157e+01
	1.199429268073123e+01
	-1.497812165799690e-06
	-2.960300513862070e-03
20		5.687561851332954e-03
	1.200000000000000e+01
	3.907046867436133e-01
	6.469930740741521e-01
	1.494299332779017e+00
	2.175294652337358e+00
	1.199231215480600e+01
	9.182824552915698e-01
	1.150836477348417e+01
	1.519588660653723e+00
	3.257780636710473e-01
	-5.589323884590061e-114
	-3.726215923060022e-114
	-5.589323884590004e-114
	9.099745095947684e-01
	4.212792993271077e-01
	1.493246066834891e+00
	9.286397141148850e-119
	9.286397141148751e-119
	2.175165209773533e+00
	1.150672598939579e+01
	1.199223527635406e+01
	2.407663311593754e-06
	-2.955015571767186e-03
21		6.687561851332955e-03
	1.200000000000000e+01
	3.450898241203519e-01
	6.439496178107101e-01
	1.724666214038163e+00
	2.156058649429065e+00
	1.199039847415612e+01
	1.142822450235386e+00
	1.151449240786133e+01
	1.500686675778880e+00
	5.370933562521122e-01
	-1.514734113983003e-118
	-1.009822742655330e-118
	-1.514734113982988e-118
	1.010159661195617e+00
	4.288203968566721e-01
	1.723726336189100e+00
	2.516659051459508e-123
	2.516659051459481e-123
	2.155845241756949e+00
	1.151287404922087e+01
	1.199030245889769e+01
	6.106617960370157e-06
	-2.935242134789307e-03
22		7.687561851332955e-03
	1.200000000000000e+01
	2.656951651300050e-01
	6.410397653491967e-01
	1.919610837673755e+00
	2.135364515838844e+00
	1.198878214156259e+01
	1.333626938623537e+00
	1.152106271002785e+01
	1.480356892998912e+00
	7.198365243691492e-01
	4.914447540154669e-117
	3.276298360103096e-117
	4.914447540154618e-117
	1.094545523530554e+00
	4.343913941805737e-01
	1.918768357724526e+00
	-8.165122030777701e-122
	-8.165122030777616e-122
	2.135078339207478e+00
	1.151946625239461e+01
	1.198866996297822e+01
	9.190343345396560e-06
	-2.914025517592177e-03
23		8.687561851332955e-03
	1.200000000000000e+01
	1.602924121696642e-01
	6.387516423340680e-01
	2.057829891407858e+00
	2.118798971930869e+00
	1.198762528673517e+01
	1.469268839008784e+00
	1.152633873743464e+01
	1.464086011281778e+00
	8.513448365829998e-01
	8.775776281758530e-120
	5.850517521172322e-120
	8.775776281758437e-120
	1.154170516883409e+00
	4.379361876496299e-01
	2.057057169409830e+00
	-1.458053701253017e-124
	-1.458053701253001e-124
	2.118460546864461e+00
	1.152475986655942e+01
	1.198750153960252e+01
	1.143258264364589e-05
	-2.897102592029198e-03
24		9.687561851332956e-03
	1.200000000000000e+01
	3.919912108325035e-02
	6.375069080241982e-01
	2.128540868909053e+00
	2.109685624965777e+00
	1.198704015838209e+01
	1.538776173767394e+00
	1.152922574504276e+01
	1.455136206569768e+00
	9.190528867302926e-01
	-4.305859417700527e-120
	-2.870572945133670e-120
	-4.305859417700483e-120
	1.184615252564173e+00
	4.396381251429212e-01
	2.127804003749591e+00
	7.153981664395123e-125
	7.153981664395049e-125
	2.109320181996769e+00
	1.152765649752623e+01
	1.198691055996592e+01
	1.253712871166287e-05
	-2.887775466776863e-03
25		1.068756185133296e-02
	1.200000000000000e+01
	-8.573125309112789e-02
	6.376244178887659e-01
	2.122744756779197e+00
	2.110493720585596e+00
	1.198708371407665e+01
	1.533070862758738e+00
	1.152897878876968e+01
	1.455929318311673e+00
	9.135421046936368e-01
	-1.528889112412456e-122
	-1.019259408274965e-122
	-1.528889112412440e-122
	1.182122590965191e+00
	4.394997608153386e-01
	2.122004960540431e+00
	2.540176911519584e-127
	2.540176911519558e-127
	2.110130544965448e+00
	1.152740871806558e+01
	1.198695455121742e+01
	1.247244809612623e-05
	-2.888616177284960e-03
26		1.168756185133296e-02
	1.200000000000000e+01
	-2.022696548881831e-01
	6.390719084285860e-01
	2.040564522339597e+00
	2.120511398358000e+00
	1.198777431380347e+01
	1.452337773531204e+00
	1.152578478713382e+01
	1.465767593402226e+00
	8.351486896450877e-01
	3.759271534454179e-123
	2.506181022969439e-123
	3.759271534454140e-123
	1.146731537037879e+00
	4.375020530486324e-01
	2.039783176324676e+00
	-6.245851761535188e-128
	-6.245851761535122e-128
	2.120179337859585e+00
	1.152420406975760e+01
	1.198765205694151e+01
	1.112473037124880e-05
	-2.898834179903561e-03
27		1.268756185133296e-02
	1.200000000000000e+01
	-2.990084935692289e-01
	6.415436467951692e-01
	1.888319746847946e+00
	2.138547957011173e+00
	1.198903817465168e+01
	1.302958056005014e+00
	1.152006053561776e+01
	1.483483487216499e+00
	6.907114640335849e-01
	2.005466433481762e-125
	1.336977622321167e-125
	2.005466433481741e-125
	1.081027534322649e+00
	4.335476445346170e-01
	1.887461702330015e+00
	-3.331987578300970e-130
	-3.331987578300935e-130
	2.138273436358070e+00
	1.151846073740315e+01
	1.198892855639820e+01
	8.717385038276942e-06
	-2.917295453741841e-03
28		1.368756185133296e-02
	1.200000000000000e+01
	-3.664782975850420e-01
	6.445634758425547e-01
	1.681134919076792e+00
	2.160283913117209e+00
	1.199076533860972e+01
	1.100264536164100e+00
	1.151313899151718e+01
	1.504838359576494e+00
	4.965150084442624e-01
	-3.270273587659115e-126
	-2.180182391772732e-126
	-3.270273587659082e-126
	9.912941250019057e-01
	4.275372033486018e-01
	1.680173385489678e+00
	5.433404812868445e-131
	5.433404812868388e-131
	2.160086567058856e+00
	1.151151612148890e+01
	1.199067299199582e+01
	5.380541574362754e-06
	-2.939555994732895e-03
29		1.468756185133296e-02
	1.200000000000000e+01
	-3.980746524287884e-01
	6.476610942795915e-01
	1.439245758911998e+00
	2.178637224557850e+00
	1.199276224930322e+01
	8.648032530905857e-01
	1.150731140595578e+01
	1.522873355767600e+00
	2.765715845789332e-01
	-2.056275885301757e-131
	-1.370850590201164e-131
	-2.056275885301736e-131
	8.859370748095228e-01
	4.192742018088413e-01
	1.438165858097606e+00
	3.416405078139442e-136
	3.416405078139406e-136
	2.178527418369639e+00
	1.150566911064230e+01
	1.199268987179626e+01
	1.558253081793858e-06
	-2.958489850740727e-03
30		1.568756185133296e-02
	1.200000000000000e+01
	-3.907046867436131e-01
	6.504095716975469e-01
	1.185540405088197e+00
	2.173921977170764e+00
	1.199484936435959e+01
	6.199831207255995e-01
	1.150880137073698e+01
	1.518239707804742e+00
	6.809768692560023e-02
	2.223286986827044e-135
	1.482191324551355e-135
	2.223286986827021e-135
	7.745503997723775e-01
	4.087025137564967e-01
	1.184344348726603e+00
	-3.693886120170394e-140
	-3.693886120170356e-140
	2.173894939809885e+00
	1.150716404197277e+01
	1.199479785800319e+01
	-2.482550735237845e-06
	-2.953968902517127e-03
31		1.668756185133296e-02
	1.200000000000000e+01
	-3.450898241203515e-01
	6.519268036801258e-01
	9.254273497568988e-01
	2.014530294833579e+00
	1.199691264020504e+01
	3.731832808065743e-01
	1.155946088811992e+01
	1.361748658482826e+00
	1.593018710213750e-04
	1.398273691873433e-140
	9.321824612489507e-141
	1.398273691873419e-140
	6.587529778198010e-01
	3.945608510244034e-01
	9.241639169970388e-01
	-2.323165571162719e-145
	-2.323165571162694e-145
	2.014530260955949e+00
	1.155799242441365e+01
	1.199688176660709e+01
	-6.336975392898681e-06
	-2.792050569705935e-03
32		1.768756185133296e-02
	1.200000000000000e+01
	-2.656951651300044e-01
	6.526966604719304e-01
	7.199290805206671e-01
	1.831945307570522e+00
	1.199846707686912e+01
	1.858702073755521e-01
	1.161733459230072e+01
	1.182905373311698e+00
	-1.142987790589066e-04
	-1.718968811601991e-141
	-1.145979207734655e-141
	-1.718968811601974e-141
	5.654967374851760e-01
	3.793553315454109e-01
	7.186313925314767e-01
	2.855985336937679e-146
	2.855985336937650e-146
	1.831945314501674e+00
	1.161605904094173e+01
	1.199845174763781e+01
	-9.387985046809878e-06
	-2.607481118501133e-03
33		1.868756185133296e-02
	1.200000000000000e+01
	-1.602924121696633e-01
	6.532333552101772e-01
	5.718639599744967e-01
	1.700137687931738e+00
	1.199946256942760e+01
	6.490789995282230e-02
	1.165901461966969e+01
	1.054150348704488e+00
	1.000579976096856e-04
	-1.346923409600476e-146
	-8.979489397336459e-147
	-1.346923409600462e-146
	4.966430126778256e-01
	3.644801226421177e-01
	5.705418648756102e-01
	2.237849507119357e-151
	2.237849507119333e-151
	1.700137681080782e+00
	1.165787800173525e+01
	1.199945719512188e+01
	-1.158522659760897e-05
	-2.475813292088924e-03
34		1.968756185133297e-02
	1.200000000000000e+01
	-3.919912108324952e-02
	6.534625411778551e-01
	5.084549944977278e-01
	1.643865515742083e+00
	1.199978931800936e+01
	2.585313230123143e-02
	1.167675950435623e+01
	9.992914002802838e-01
	-1.044344959048998e-04
	1.329043283078747e-147
	8.860288553858269e-148
	1.329043283078734e-147
	4.664773477376405e-01
	3.565050851811116e-01
	5.071224049658074e-01
	-2.208142523011218e-152
	-2.208142523011195e-152
	1.643865522755880e+00
	1.167568203603741e+01
	1.199978721118945e+01
	-1.258759442613821e-05
	-2.420764425631484e-03
35		2.068756185133297e-02
	1.200000000000000e+01
	8.573125309112922e-02
	6.534252023411586e-01
	5.182900615208675e-01
	1.652489934745914e+00
	1.199974540583852e+01
	3.066305597382148e-02
	1.167404954102396e+01
	1.007694414747193e+00
	1.049485382636830e-04
	1.096425485822903e-155
	7.309503238819317e-156
	1.096425485822892e-155
	4.711886526956679e-01
	3.578194076357445e-01
	5.169591591060003e-01
	-1.821659060606632e-160
	-1.821659060606614e-160
	1.652489927687858e+00
	1.167296303949404e+01
	1.199974285989690e+01
	-1.240594817607683e-05
	-2.429097746602822e-03
36		2.168756185133297e-02
	1.200000000000000e+01
	2.022696548881841e-01
	6.530827429150973e-01
	6.141608132359186e-01
	1.737872063551097e+00
	1.199920164951804e+01
	9.698830455299527e-02
	1.164708735162203e+01
	1.090976069271570e+00
	-9.737332617957596e-05
	-9.035579646563142e-157
	-6.023719764375397e-157
	-9.035579646563048e-157
	5.165099434247873e-01
	3.691962374353617e-01
	6.128456269494166e-01
	1.501218800896538e-161
	1.501218800896521e-161
	1.737872070414173e+00
	1.164591097612744e+01
	1.199919366601322e+01
	-1.097022406854647e-05
	-2.513257744104243e-03
37		2.268756185133297e-02
	1.200000000000000e+01
	2.990084935692298e-01
	6.524801618383494e-01
	7.778537887728131e-01
	1.883338696962042e+00
	1.199803617913618e+01
	2.373470258868221e-01
	1.160106880315651e+01
	1.233193636313093e+00
	1.147521328922861e-04
	-9.874507582938596e-162
	-6.583005055292364e-162
	-9.874507582938495e-162
	5.919958795021512e-01
	3.841436857455990e-01
	7.765657881315907e-01
	1.640602707623895e-166
	1.640602707623878e-166
	1.883338689900195e+00
	1.159973903250037e+01
	1.199801654092754e+01
	-8.498059883012244e-06
	-2.659278875090497e-03
38		2.368756185133297e-02
	1.200000000000000e+01
	3.664782975850425e-01
	6.516083952767784e-01
	1.007333883432350e+00
	2.086217203211560e+00
	1.199627718118913e+01
	4.502184096433752e-01
	1.153668424754806e+01
	1.432093760743549e+00
	1.207516546939211e-03
	6.985933703002846e-163
	4.657289135335206e-163
	6.985933703002773e-163
	6.954433890185784e-01
	3.994928923290976e-01
	1.006084463960876e+00
	-1.160679826529306e-167
	-1.160679826529294e-167
	2.086216702921698e+00
	1.153513986170656e+01
	1.199623995300102e+01
	-5.170254232464541e-06
	-2.864846679950964e-03
39		2.468756185133297e-02
	1.200000000000000e+01
	3.980746524287886e-01
	6.498191794779671e-01
	1.245643664727597e+00
	2.180154298575426e+00
	1.199435392359165e+01
	6.776856297880512e-01
	1.150682857257440e+01
	1.524364295527304e+00
	1.127728392713557e-01
	5.209823425063321e-180
	3.473215616708862e-180
	5.209823425063267e-180
	8.010437025622260e-01
	4.114344760638589e-01
	1.244473437971889e+00
	-8.655875086034076e-185
	-8.655875086033985e-185
	2.180109594038008e+00
	1.150518466781632e+01
	1.199429746282756e+01
	-1.506859896046941e-06
	-2.960259872383208e-03
40		2.568756185133297e-02
	1.200000000000000e+01
	3.907046867436129e-01
	6.469882448365383e-01
	1.494693712064646e+00
	2.175279035614914e+00
	1.199230847711306e+01
	9.186642229138445e-01
	1.150836999676663e+01
	1.519573308644022e+00
	3.261333162850128e-01
	-3.228927258596546e-181
	-2.152618172397687e-181
	-3.228927258596513e-181
	9.101465495405809e-01
	4.212933159998042e-01
	1.493640635017152e+00
	5.364709843685817e-186
	5.364709843685762e-186
	2.175149456586954e+00
	1.150673123008919e+01
	1.199223156188419e+01
	2.414666104796301e-06
	-2.955002651211720e-03
41		2.668756185133297e-02
	1.200000000000000e+01
	3.450898241203508e-01
	6.439536068510360e-01
	1.724384768133375e+00
	2.156083562127600e+00
	1.199040123040191e+01
	1.142548594730276e+00
	1.151448423029129e+01
	1.500711155849292e+00
	5.368241960353165e-01
	-4.527411756999230e-186
	-3.018274504666138e-186
	-4.527411756999184e-186
	1.010037622616042e+00
	4.288119373768919e-01
	1.723444750641751e+00
	7.522080392033843e-191
	7.522080392033763e-191
	2.155870256759221e+00
	1.151286584439226e+01
	1.199030524270593e+01
	6.101378822755637e-06
	-2.935264362031103e-03
42		2.768756185133297e-02
	1.200000000000000e+01
	2.656951651300034e-01
	6.410366097068130e-01
	1.919802697218748e+00
	2.135343003910763e+00
	1.198878010648567e+01
	1.333816029427720e+00
	1.152106980570098e+01
	1.480335755126912e+00
	7.200273563481717e-01
	2.839128499514216e-184
	1.892752333009467e-184
	2.839128499514187e-184
	1.094627704113623e+00
	4.343949271564307e-01
	1.918960314260874e+00
	-4.717077651186561e-189
	-4.717077651186512e-189
	2.135056756111719e+00
	1.151947337171999e+01
	1.198866790755052e+01
	9.194153546469261e-06
	-2.914007024560314e-03
43		2.868756185133297e-02
	1.200000000000000e+01
	1.602924121696624e-01
	6.387539939931574e-01
	2.057707446319891e+00
	2.118804280870634e+00
	1.198762674144343e+01
	1.469148589268340e+00
	1.152633679523778e+01
	1.464091227171516e+00
	8.512272678055488e-01
	5.032722856143490e-187
	3.355148570762309e-187
	5.032722856143438e-187
	1.154118162284647e+00
	4.379340303554001e-01
	2.056934664980879e+00
	-8.361630871372044e-192
	-8.361630871371955e-192
	2.118465897762085e+00
	1.152475791788857e+01
	1.198750300885786e+01
	1.142987390286782e-05
	-2.897104526066074e-03
44		2.968756185133297e-02
	1.200000000000000e+01
	3.919912108324851e-02
	6.375053064677226e-01
	2.128613301935720e+00
	2.109686857247910e+00
	1.198703912417020e+01
	1.538846921671521e+00
	1.152922560819046e+01
	1.455137414143113e+00
	9.191223984007105e-01
	-2.487605990478453e-187
	-1.658403993652293e-187
	-2.487605990478427e-187
	1.184646203435164e+00
	4.396394311045875e-01
	2.127876470693908e+00
	4.133039636864441e-192
	4.133039636864398e-192
	2.109321391442990e+00
	1.152765636021776e+01
	1.198690951541190e+01
	1.253904680932803e-05
	-2.887780183344509e-03
45		3.068756185133297e-02
	1.200000000000000e+01
	-8.573125309113057e-02
	6.376253943352279e-01
	2.122704569492964e+00
	2.110488300890922e+00
	1.198708447799617e+01
	1.533031944063917e+00
	1.152898025560743e+01
	1.455924001476666e+00
	9.135035486619990e-01
	-8.800015474958011e-190
	-5.866676983305309e-190
	-8.800015474957919e-190
	1.182105442251819e+00
	4.394990597076168e-01
	2.121964755718607e+00
	1.462080928500520e-194
	1.462080928500504e-194
	2.110125135788797e+00
	1.152741018979279e+01
	1.198695532277613e+01
	1.247104559904888e-05
	-2.888607198300562e-03
46		3.168756185133297e-02
	1.200000000000000e+01
	-2.022696548881847e-01
	6.390714077109991e-01
	2.040586514335877e+00
	2.120519531603971e+00
	1.198777370278370e+01
	1.452358671894298e+00
	1.152578245818134e+01
	1.465775573990624e+00
	8.351694530551885e-01
	2.171885710777394e-190
	1.447923807184922e-190
	2.171885710777371e-190
	1.146740930525204e+00
	4.375024459196968e-01
	2.039805176493217e+00
	-3.608485332380139e-195
	-3.608485332380101e-195
	2.120187467669667e+00
	1.152420173304194e+01
	1.198765143981154e+01
	1.112583743551621e-05
	-2.898845919378517e-03
47		3.268756185133297e-02
	1.200000000000000e+01
	-2.990084935692300e-01
	6.415438705757981e-01
	1.888306584379608e+00
	2.138538464506655e+00
	1.198903871064182e+01
	1.302945990805936e+00
	1.152006329698714e+01
	1.483474170472550e+00
	6.906993762841392e-01
	1.155738221436849e-192
	7.704921476245621e-193
	1.155738221436837e-192
	1.081021891238848e+00
	4.335473874301055e-01
	1.887448536247986e+00
	-1.920204364083793e-197
	-1.920204364083772e-197
	2.138263943836722e+00
	1.151846350797709e+01
	1.198892909774824e+01
	8.716422873652669e-06
	-2.917282337722394e-03
48		3.368756185133297e-02
	1.200000000000000e+01
	-3.664782975850427e-01
	6.445633814960258e-01
	1.681144212933754e+00
	2.160294057913054e+00
	1.199076483655850e+01
	1.100272615915828e+00
	1.151313602160413e+01
	1.504848320777567e+00
	4.965232400269714e-01
	-1.889422532000311e-193
	-1.259615021333534e-193
	-1.889422532000292e-193
	9.912981320102608e-01
	4.275374149101259e-01
	1.680182680943939e+00
	3.139186127317576e-198
	3.139186127317543e-198
	2.160096713405673e+00
	1.151151314167615e+01
	1.199067248492408e+01
	5.381440113555377e-06
	-2.939569764734075e-03
49		3.468756185133298e-02
	1.200000000000000e+01
	-3.980746524287886e-01
	6.476611377978809e-01
	1.439238192907070e+00
	2.178626548105606e+00
	1.199276273099412e+01
	8.647975352035894e-01
	1.150731454602794e+01
	1.522862868691289e+00
	2.765653061620556e-01
	-1.185759109755481e-198
	-7.905060731703166e-199
	-1.185759109755469e-198
	8.859337734674111e-01
	4.192739488166728e-01
	1.438158291476796e+00
	1.970082649402972e-203
	1.970082649402951e-203
	2.178516739591062e+00
	1.150567226118137e+01
	1.199269035830407e+01
	1.557382115564842e-06
	-2.958475592849083e-03
50		3.568756185133298e-02
	1.200000000000000e+01
	-3.907046867436127e-01
	6.504095357832763e-01
	1.185546795511472e+00
	2.173931566628048e+00
	1.199484889848973e+01
	6.199869960767871e-01
	1.150879857663827e+01
	1.518249126150500e+00
	6.810399401775506e-02
	1.284519021503276e-202
	8.563460143355129e-203
	1.284519021503263e-202
	7.745532092091368e-01
	4.087027768798423e-01
	1.184350739582178e+00
	-2.134167569341746e-207
	-2.134167569341724e-207
	2.173904531578225e+00
	1.150716123856039e+01
	1.199479738747463e+01
	-2.481695655520987e-06
	-2.953981987177739e-03
51		3.668756185133298e-02
	1.200000000000000e+01
	-3.450898241203505e-01
	6.519268765571479e-01
	9.254233468092634e-01
	2.014529723150089e+00
	1.199691307603953e+01
	3.731832146817307e-01
	1.155946081366121e+01
	1.361748102755696e+00
	1.464912743100554e-04
	8.063200398265539e-208
	5.375466932176998e-208
	8.063200398265456e-208
	6.587512095788541e-01
	3.945606479927019e-01
	9.241599117172240e-01
	-1.339662590199944e-212
	-1.339662590199930e-212
	2.014529689544808e+00