Title: kicad schematic
Date: Tue Jul 07 13:40:36  2026
Plotname: Transient Analysis
Flags: real
No. Variables: 58
No. Points: 108     
Variables:
	0	time	time
	1	v(in)	voltage
	2	v(on_off)	voltage
	3	v(x1.net-_q1-pad1_)	voltage
	4	v(x1.net-_q1-pad2_)	voltage
	5	v(x1.net-_q14-pad1_)	voltage
	6	v(x1.net-_q3-pad3_)	voltage
	7	v(x1.net-_q11-pad3_)	voltage
	8	v(x1.net-_q11-pad1_)	voltage
	9	v(adj)	voltage
	10	v(x1.net-_q2-pad2_)	voltage
	11	v(x1.net-_c1-pad2_)	voltage
	12	v(x1.net-_q10-pad1_)	voltage
	13	v(x1.net-_q15-pad3_)	voltage
	14	v(x1.net-_q16-pad1_)	voltage
	15	v(x1.net-_c1-pad1_)	voltage
	16	v(x1.net-_q24-pad2_)	voltage
	17	v(net-_qp1-pad2_)	voltage
	18	v(x1.net-_q23-pad3_)	voltage
	19	v(x1.net-_q28-pad2_)	voltage
	20	v(x1.net-_q28-pad3_)	voltage
	21	v(x1.net-_j1-pad3_)	voltage
	22	v(x1.net-_q30-pad2_)	voltage
	23	v(vout)	voltage
	24	v(qp1#collCX)	voltage
	25	v(q.x1.q30#collCX)	voltage
	26	v(q.x1.q29#collCX)	voltage
	27	v(q.x1.q31#collCX)	voltage
	28	v(q.x1.q28#collCX)	voltage
	29	v(q.x1.q27#collCX)	voltage
	30	v(q.x1.q25#collCX)	voltage
	31	v(q.x1.q23#collCX)	voltage
	32	v(q.x1.q24#collCX)	voltage
	33	v(q.x1.q21#collCX)	voltage
	34	v(q.x1.q20#collCX)	voltage
	35	v(q.x1.q17#collCX)	voltage
	36	v(q.x1.q15#collCX)	voltage
	37	v(q.x1.q5#collCX)	voltage
	38	v(q.x1.q9#collCX)	voltage
	39	v(q.x1.q22#collCX)	voltage
	40	v(q.x1.q8#collCX)	voltage
	41	v(q.x1.q6#collCX)	voltage
	42	v(q.x1.q16#collCX)	voltage
	43	v(q.x1.q10#collCX)	voltage
	44	v(q.x1.q7#collCX)	voltage
	45	v(q.x1.q26#collCX)	voltage
	46	v(q.x1.q18#collCX)	voltage
	47	v(q.x1.q13#collCX)	voltage
	48	v(q.x1.q2#collCX)	voltage
	49	v(q.x1.q12#collCX)	voltage
	50	v(q.x1.q3#collCX)	voltage
	51	v(q.x1.q11#collCX)	voltage
	52	v(q.x1.q4#collCX)	voltage
	53	v(q.x1.q19#collCX)	voltage
	54	v(q.x1.q14#collCX)	voltage
	55	v(q.x1.q1#collCX)	voltage
	56	i(v1)	current
	57	i(v2)	current
Values:
0		0.000000000000000e+00
	1.000000000000000e+01
	1.275000000000000e+00
	1.159407032303458e+00
	9.371053593332023e+00
	1.115732858522307e+00
	1.887076396587864e+00
	2.499276714014350e+00
	2.321583094970777e+00
	3.660211347944404e+00
	5.289502271089993e-01
	4.298521906328123e-03
	6.347597031314685e-01
	8.640860211061019e-02
	5.500134556577958e-01
	9.993490818110235e+00
	9.233493788107699e+00
	9.233339921898599e+00
	9.479670973688275e+00
	6.119616649301546e-01
	5.997373657484617e-02
	1.293060179319680e+00
	6.812432182773906e-01
	4.880281805973218e+00
	4.883838311343993e+00
	6.081073437244832e-01
	1.289223358067318e+00
	9.999700026660690e+00
	9.371023849889495e+00
	9.233312389376254e+00
	9.999999999793086e+00
	9.999993917960360e+00
	9.993490818099465e+00
	9.993490818089873e+00
	5.499888135422651e-01
	8.638512688712002e-02
	1.115709599982266e+00
	5.289393115038169e-01
	4.298380042311862e-03
	9.993490869928420e+00
	4.298521908442056e-03
	5.289591817261112e-01
	5.500316549859827e-01
	6.347778900735409e-01
	2.499294628447355e+00
	7.145476519779292e-12
	1.474337309120285e-06
	1.793058884864014e-05
	1.800884710725161e-05
	2.617181676317406e-12
	8.905490446885385e-06
	2.321583094971224e+00
	1.887085247311183e+00
	9.371070503418332e+00
	1.115750975167597e+00
	1.159425142565536e+00
	-1.031426933996826e-02
	1.000075968389136e-03
1		1.000000000000000e-10
	1.000000000000000e+01
	1.275000000000000e+00
	1.159407032303422e+00
	9.371053593331736e+00
	1.115732858505089e+00
	1.887076396587806e+00
	2.499276714014257e+00
	2.321583094970676e+00
	3.660211347944331e+00
	5.289502271089420e-01
	4.298521905971402e-03
	6.347597031296707e-01
	8.640860210736268e-02
	5.500134556551260e-01
	9.993490818110082e+00
	9.233493788107607e+00
	9.233339921898486e+00
	9.479670973688187e+00
	6.119616649301122e-01
	5.997373657474907e-02
	1.293060179319651e+00
	6.812432182773770e-01
	4.880281805973218e+00
	4.883838311343994e+00
	6.081073437244440e-01
	1.289223358067288e+00
	9.999700026660692e+00
	9.371023849889214e+00
	9.233312389376128e+00
	9.999999999793083e+00
	9.999993917960355e+00
	9.993490818099312e+00
	9.993490818089699e+00
	5.499888135397178e-01
	8.638512688409541e-02
	1.115709599965783e+00
	5.289393115037623e-01
	4.298380042004460e-03
	9.993490869928284e+00
	4.298521908095543e-03
	5.289591817260526e-01
	5.500316549833755e-01
	6.347778900717851e-01
	2.499294628447263e+00
	7.142675340077176e-12
	1.474338797852193e-06
	1.793058874385856e-05
	1.800884710487401e-05
	2.614339300599511e-12
	8.905490444740399e-06
	2.321583094971124e+00
	1.887085247311123e+00
	9.371070503418061e+00
	1.115750975150804e+00
	1.159425142565500e+00
	-1.031426934172508e-02
	1.000075968385472e-03
2		2.000000000000001e-10
	1.000000000000000e+01
	1.275000000000000e+00
	1.159407032303349e+00
	9.371053593331421e+00
	1.115732858490328e+00
	1.887076396587713e+00
	2.499276714014111e+00
	2.321583094970514e+00
	3.660211347944217e+00
	5.289502271088421e-01
	4.298521905408123e-03
	6.347597031276305e-01
	8.640860210561876e-02
	5.500134556523484e-01
	9.993490818109880e+00
	9.233493788107459e+00
	9.233339921898327e+00
	9.479670973688041e+00
	6.119616649300685e-01
	5.997373657468435e-02
	1.293060179319620e+00
	6.812432182773626e-01
	4.880281805973218e+00
	4.883838311343994e+00
	6.081073437244013e-01
	1.289223358067256e+00
	9.999700026660692e+00
	9.371023849888900e+00
	9.233312389375957e+00
	9.999999999793079e+00
	9.999993917960346e+00
	9.993490818099112e+00
	9.993490818089489e+00
	5.499888135369295e-01
	8.638512688221314e-02
	1.115709599951024e+00
	5.289393115036639e-01
	4.298380041478889e-03
	9.993490869928085e+00
	4.298521907539026e-03
	5.289591817259527e-01
	5.500316549806018e-01
	6.347778900697513e-01
	2.499294628447116e+00
	7.141440216962280e-12
	1.474339098680999e-06
	1.793058873176406e-05
	1.800884710204814e-05
	2.612549065972303e-12
	8.905490443761907e-06
	2.321583094970962e+00
	1.887085247311029e+00
	9.371070503417746e+00
	1.115750975136000e+00
	1.159425142565426e+00
	-1.031426935029245e-02
	1.000075968380476e-03
3		4.000000000000002e-10
	1.000000000000000e+01
	1.275000000000000e+00
	1.159407032303138e+00
	9.371053593330819e+00
	1.115732858463860e+00
	1.887076396587484e+00
	2.499276714013762e+00
	2.321583094970093e+00
	3.660211347943923e+00
	5.289502271085793e-01
	4.298521904068667e-03
	6.347597031236514e-01
	8.640860210307062e-02
	5.500134556472227e-01
	9.993490818109438e+00
	9.233493788107133e+00
	9.233339921898017e+00
	9.479670973687718e+00
	6.119616649300093e-01
	5.997373657461518e-02
	1.293060179319574e+00
	6.812432182773396e-01
	4.880281805973218e+00
	4.883838311344002e+00
	6.081073437243416e-01
	1.289223358067210e+00
	9.999700026660692e+00
	9.371023849888299e+00
	9.233312389375627e+00
	9.999999999793074e+00
	9.999993917960344e+00
	9.993490818098669e+00
	9.993490818089047e+00
	5.499888135317457e-01
	8.638512687951194e-02
	1.115709599924458e+00
	5.289393115034026e-01
	4.298380040186246e-03
	9.993490869927635e+00
	4.298521906206922e-03
	5.289591817256909e-01
	5.500316549754665e-01
	6.347778900657700e-01
	2.499294628446767e+00
	7.140468771815733e-12
	1.474339411167147e-06
	1.793058874969417e-05
	1.800884709708597e-05
	2.609842897349779e-12
	8.905490443380701e-06
	2.321583094970543e+00
	1.887085247310800e+00
	9.371070503417139e+00
	1.115750975109465e+00
	1.159425142565214e+00
	-1.031426934621393e-02
	1.000075968369818e-03
4		8.000000000000003e-10
	1.000000000000000e+01
	1.275000000000000e+00
	1.159407032302516e+00
	9.371053593329821e+00
	1.115732858419681e+00
	1.887076396587020e+00
	2.499276714013072e+00
	2.321583094969160e+00
	3.660211347943288e+00
	5.289502271079151e-01
	4.298521901108777e-03
	6.347597031166813e-01
	8.640860209906241e-02
	5.500134556387789e-01
	9.993490818108576e+00
	9.233493788106566e+00
	9.233339921897580e+00
	9.479670973687039e+00
	6.119616649299936e-01
	5.997373657462143e-02
	1.293060179319545e+00
	6.812432182773300e-01
	4.880281805973216e+00
	4.883838311344024e+00
	6.081073437243258e-01
	1.289223358067181e+00
	9.999700026660692e+00
	9.371023849887298e+00
	9.233312389375188e+00
	9.999999999793079e+00
	9.999993917960346e+00
	9.993490818097811e+00
	9.993490818088187e+00
	5.499888135232556e-01
	8.638512687549861e-02
	1.115709599880176e+00
	5.289393115027352e-01
	4.298380037232580e-03
	9.993490869926756e+00
	4.298521903247442e-03
	5.289591817250310e-01
	5.500316549670113e-01
	6.347778900587908e-01
	2.499294628446076e+00
	7.140732449784082e-12
	1.474339547718508e-06
	1.793058877962335e-05
	1.800884709361999e-05
	2.611293126175696e-12
	8.905490446680037e-06
	2.321583094969609e+00
	1.887085247310339e+00
	9.371070503416131e+00
	1.115750975065256e+00
	1.159425142564593e+00
	-1.031426934282464e-02
	1.000075968358938e-03
5		1.600000000000001e-09
	1.000000000000000e+01
	1.275000000000000e+00
	1.159407032301193e+00
	9.371053593328092e+00
	1.115732858337570e+00
	1.887076396586277e+00
	2.499276714012020e+00
	2.321583094967646e+00
	3.660211347942310e+00
	5.289502271065916e-01
	4.298521895773455e-03
	6.347597031040619e-01
	8.640860209056175e-02
	5.500134556234052e-01
	9.993490818107103e+00
	9.233493788105948e+00
	9.233339921897210e+00
	9.479670973686027e+00
	6.119616649300310e-01
	5.997373657465976e-02
	1.293060179319554e+00
	6.812432182773395e-01
	4.880281805973214e+00
	4.883838311344072e+00
	6.081073437243657e-01
	1.289223358067190e+00
	9.999700026660694e+00
	9.371023849885571e+00
	9.233312389374834e+00
	9.999999999793079e+00
	9.999993917960344e+00
	9.993490818096339e+00
	9.993490818086714e+00
	5.499888135079050e-01
	8.638512686698692e-02
	1.115709599798078e+00
	5.289393115014097e-01
	4.298380031891088e-03
	9.993490869925276e+00
	4.298521897909989e-03
	5.289591817237079e-01
	5.500316549516419e-01
	6.347778900461746e-01
	2.499294628445024e+00
	7.141197355675644e-12
	1.474339567763237e-06
	1.793058876529367e-05
	1.800884709463480e-05
	2.612958460712633e-12
	8.905490446729043e-06
	2.321583094968093e+00
	1.887085247309596e+00
	9.371070503414405e+00
	1.115750974983141e+00
	1.159425142563271e+00
	-1.031426934233970e-02
	1.000075968360714e-03
6		3.200000000000001e-09
	1.000000000000000e+01
	1.275000000000000e+00
	1.159407032298890e+00
	9.371053593324786e+00
	1.115732858175142e+00
	1.887076396585003e+00
	2.499276714010244e+00
	2.321583094965045e+00
	3.660211347940783e+00
	5.289502271041423e-01
	4.298521885844619e-03
	6.347597030798316e-01
	8.640860207477820e-02
	5.500134555932432e-01
	9.993490818104354e+00
	9.233493788105349e+00
	9.233339921896860e+00
	9.479670973684385e+00
	6.119616649300647e-01
	5.997373657470498e-02
	1.293060179319587e+00
	6.812432182773479e-01
	4.880281805973214e+00
	4.883838311344162e+00
	6.081073437243997e-01
	1.289223358067225e+00
	9.999700026660696e+00
	9.371023849882265e+00
	9.233312389374518e+00
	9.999999999793079e+00
	9.999993917960348e+00
	9.993490818093589e+00
	9.993490818083968e+00
	5.499888134777624e-01
	8.638512685124114e-02
	1.115709599635646e+00
	5.289393114989617e-01
	4.298380021963252e-03
	9.993490869922518e+00
	4.298521887981233e-03
	5.289591817212582e-01
	5.500316549214780e-01
	6.347778900219422e-01
	2.499294628443251e+00
	7.141079394479277e-12
	1.474339549101082e-06
	1.793058877059325e-05
	1.800884709583696e-05
	2.613548266694465e-12
	8.905490446118854e-06
	2.321583094965492e+00
	1.887085247308322e+00
	9.371070503411097e+00
	1.115750974820715e+00
	1.159425142560971e+00
	-1.031426934150836e-02
	1.000075968366182e-03
7		6.400000000000003e-09
	1.000000000000000e+01
	1.275000000000000e+00
	1.159407032295276e+00
	9.371053593318711e+00
	1.115732857854816e+00
	1.887076396583117e+00
	2.499276714007665e+00
	2.321583094960920e+00
	3.660211347938851e+00
	5.289502270998759e-01
	4.298521867888559e-03
	6.347597030353587e-01
	8.640860204650844e-02
	5.500134555350739e-01
	9.993490818099559e+00
	9.233493788105433e+00
	9.233339921897111e+00
	9.479670973681923e+00
	6.119616649301047e-01
	5.997373657475172e-02
	1.293060179319630e+00
	6.812432182773525e-01
	4.880281805973212e+00
	4.883838311344206e+00
	6.081073437244392e-01
	1.289223358067267e+00
	9.999700026660692e+00
	9.371023849876190e+00
	9.233312389374833e+00
	9.999999999793085e+00
	9.999993917960351e+00
	9.993490818088798e+00
	9.993490818079174e+00
	5.499888134196583e-01
	8.638512682300702e-02
	1.115709599315343e+00
	5.289393114946971e-01
	4.298380003996090e-03
	9.993490869917716e+00
	4.298521870022605e-03
	5.289591817169921e-01
	5.500316548633145e-01
	6.347778899774720e-01
	2.499294628440675e+00
	7.142311048147221e-12
	1.474339554017289e-06
	1.793058875082976e-05
	1.800884709817277e-05
	2.615821621809733e-12
	8.905490445472344e-06
	2.321583094961367e+00
	1.887085247306436e+00
	9.371070503405029e+00
	1.115750974500387e+00
	1.159425142557361e+00
	-1.031426934115842e-02
	1.000075968374120e-03
8		1.280000000000001e-08
	1.000000000000000e+01
	1.275000000000000e+00
	1.159407032291409e+00
	9.371053593307938e+00
	1.115732857232572e+00
	1.887076396581554e+00
	2.499276714005742e+00
	2.321583094956283e+00
	3.660211347938092e+00
	5.289502270935781e-01
	4.298521839082553e-03
	6.347597029604244e-01
	8.640860200323303e-02
	5.500134554265975e-01
	9.993490818092273e+00
	9.233493788109167e+00
	9.233339921900985e+00
	9.479670973679553e+00
	6.119616649301282e-01
	5.997373657478843e-02
	1.293060179319652e+00
	6.812432182773582e-01
	4.880281805973211e+00
	4.883838311343830e+00
	6.081073437244616e-01
	1.289223358067290e+00
	9.999700026660692e+00
	9.371023849865413e+00
	9.233312389378828e+00
	9.999999999793085e+00
	9.999993917960353e+00
	9.993490818081513e+00
	9.993490818071898e+00
	5.499888133112765e-01
	8.638512677983139e-02
	1.115709598693111e+00
	5.289393114884019e-01
	4.298379975179142e-03
	9.993490869910422e+00
	4.298521841213768e-03
	5.289591817106937e-01
	5.500316547548388e-01
	6.347778899025363e-01
	2.499294628438760e+00
	7.142909527746433e-12
	1.474339524814737e-06
	1.793058874268436e-05
	1.800884710346866e-05
	2.617563501020048e-12
	8.905490444809246e-06
	2.321583094956730e+00
	1.887085247304872e+00
	9.371070503394263e+00
	1.115750973878142e+00
	1.159425142553500e+00
	-1.031426934018320e-02
	1.000075968387582e-03
9		2.280000000000001e-08
	1.000000000000000e+01
	1.275000000000000e+00
	1.159407032292243e+00
	9.371053593294109e+00
	1.115732856305103e+00
	1.887076396583324e+00
	2.499276714008960e+00
	2.321583094955772e+00
	3.660211347940936e+00
	5.289502270885043e-01
	4.298521809615524e-03
	6.347597028756027e-01
	8.640860196564568e-02
	5.500134552763433e-01
	9.993490818085732e+00
	9.233493788122631e+00
	9.233339921914698e+00
	9.479670973681134e+00
	6.119616649301354e-01
	5.997373657480257e-02
	1.293060179319661e+00
	6.812432182773652e-01
	4.880281805973211e+00
	4.883838311342159e+00
	6.081073437244678e-01
	1.289223358067298e+00
	9.999700026660690e+00
	9.371023849851584e+00
	9.233312389392704e+00
	9.999999999793088e+00
	9.999993917960362e+00
	9.993490818074973e+00
	9.993490818065363e+00
	5.499888131611756e-01
	8.638512674235807e-02
	1.115709597765685e+00
	5.289393114833304e-01
	4.298379945688241e-03
	9.993490869903869e+00
	4.298521811740879e-03
	5.289591817056198e-01
	5.500316546045926e-01
	6.347778898177175e-01
	2.499294628441985e+00
	7.144762212418776e-12
	1.474339510124881e-06
	1.793058871298877e-05
	1.800884711146937e-05
	2.619143617266229e-12
	8.905490445351456e-06
	2.321583094956219e+00
	1.887085247306643e+00
	9.371070503380439e+00
	1.115750972950668e+00
	1.159425142554343e+00
	-1.031426933759860e-02
	1.000075968400543e-03
10		3.280000000000002e-08
	1.000000000000000e+01
	1.275000000000000e+00
	1.159407032298857e+00
	9.371053593283442e+00
	1.115732855427934e+00
	1.887076396588387e+00
	2.499276714017138e+00
	2.321583094960571e+00
	3.660211347945154e+00
	5.289502270878028e-01
	4.298521795144245e-03
	6.347597028227943e-01
	8.640860195896791e-02
	5.500134551468882e-01
	9.993490818084091e+00
	9.233493788144095e+00
	9.233339921936352e+00
	9.479670973688151e+00
	6.119616649301403e-01
	5.997373657481517e-02
	1.293060179319667e+00
	6.812432182773729e-01
	4.880281805973208e+00
	4.883838311339376e+00
	6.081073437244715e-01
	1.289223358067304e+00
	9.999700026660690e+00
	9.371023849840915e+00
	9.233312389414499e+00
	9.999999999793094e+00
	9.999993917960365e+00
	9.993490818073331e+00
	9.993490818063730e+00
	5.499888130318351e-01
	8.638512673579965e-02
	1.115709596888536e+00
	5.289393114826293e-01
	4.298379931201027e-03
	9.993490869902219e+00
	4.298521797265866e-03
	5.289591817049185e-01
	5.500316544751372e-01
	6.347778897649077e-01
	2.499294628450171e+00
	7.145377171891010e-12
	1.474339470696460e-06
	1.793058870850532e-05
	1.800884711956674e-05
	2.618694757566820e-12
	8.905490447024271e-06
	2.321583094961019e+00
	1.887085247311707e+00
	9.371070503369781e+00
	1.115750972073495e+00
	1.159425142560964e+00
	-1.031426933363555e-02
	1.000075968408204e-03
11		4.280000000000003e-08
	1.000000000000000e+01
	1.275000000000000e+00
	1.159407032308929e+00
	9.371053593275157e+00
	1.115732854596073e+00
	1.887076396595413e+00
	2.499276714028294e+00
	2.321583094968387e+00
	3.660211347948851e+00
	5.289502270900849e-01
	4.298521791553614e-03
	6.347597027947300e-01
	8.640860197638510e-02
	5.500134550355705e-01
	9.993490818085942e+00
	9.233493788171801e+00
	9.233339921964259e+00
	9.479670973699120e+00
	6.119616649301454e-01
	5.997373657481932e-02
	1.293060179319671e+00
	6.812432182773760e-01
	4.880281805973202e+00
	4.883838311335702e+00
	6.081073437244763e-01
	1.289223358067308e+00
	9.999700026660689e+00
	9.371023849832630e+00
	9.233312389442531e+00
	9.999999999793094e+00
	9.999993917960371e+00
	9.993490818075186e+00
	9.993490818065585e+00
	5.499888129206334e-01
	8.638512675330265e-02
	1.115709596056713e+00
	5.289393114849105e-01
	4.298379927590529e-03
	9.993490869904059e+00
	4.298521793671197e-03
	5.289591817072017e-01
	5.500316543638247e-01
	6.347778897368462e-01
	2.499294628461333e+00
	7.146519487299940e-12
	1.474339454520272e-06
	1.793058869208091e-05
	1.800884712672491e-05
	2.618716007929400e-12
	8.905490449433043e-06
	2.321583094968835e+00
	1.887085247318734e+00
	9.371070503361503e+00
	1.115750971241628e+00
	1.159425142571041e+00
	-1.031426932828339e-02
	1.000075968412811e-03
12		5.280000000000004e-08
	1.000000000000000e+01
	1.275000000000000e+00
	1.159407032320932e+00
	9.371053593268956e+00
	1.115732853805969e+00
	1.887076396603416e+00
	2.499276714041026e+00
	2.321583094977952e+00
	3.660211347951616e+00
	5.289502270943489e-01
	4.298521795794610e-03
	6.347597027853136e-01
	8.640860201271174e-02
	5.500134549400341e-01
	9.993490818090583e+00
	9.233493788204632e+00
	9.233339921997240e+00
	9.479670973713258e+00
	6.119616649301515e-01
	5.997373657482988e-02
	1.293060179319679e+00
	6.812432182773825e-01
	4.880281805973194e+00
	4.883838311331318e+00
	6.081073437244814e-01
	1.289223358067316e+00
	9.999700026660690e+00
	9.371023849826429e+00
	9.233312389475616e+00
	9.999999999793094e+00
	9.999993917960374e+00
	9.993490818079827e+00
	9.993490818070232e+00
	5.499888128251792e-01
	8.638512678972292e-02
	1.115709595266625e+00
	5.289393114891727e-01
	4.298379931819135e-03
	9.993490869908694e+00
	4.298521797910185e-03
	5.289591817114664e-01
	5.500316542682862e-01
	6.347778897274283e-01
	2.499294628474070e+00
	7.146783165268289e-12
	1.474339414978985e-06
	1.793058869791999e-05
	1.800884713354514e-05
	2.617924106662617e-12
	8.905490452139754e-06
	2.321583094978400e+00
	1.887085247326738e+00
	9.371070503355305e+00
	1.115750970451519e+00
	1.159425142583050e+00
	-1.031426932207680e-02
	1.000075968414449e-03
13		6.280000000000005e-08
	1.000000000000000e+01
	1.275000000000000e+00
	1.159407032333628e+00
	9.371053593264401e+00
	1.115732853054169e+00
	1.887076396611634e+00
	2.499276714054175e+00
	2.321583094988114e+00
	3.660211347953308e+00
	5.289502270998010e-01
	4.298521805285473e-03
	6.347597027897257e-01
	8.640860206297062e-02
	5.500134548583920e-01
	9.993490818097222e+00
	9.233493788241278e+00
	9.233339922034018e+00
	9.479670973729647e+00
	6.119616649301488e-01
	5.997373657482376e-02
	1.293060179319674e+00
	6.812432182773820e-01
	4.880281805973183e+00
	4.883838311326384e+00
	6.081073437244788e-01
	1.289223358067311e+00
	9.999700026660692e+00
	9.371023849821874e+00
	9.233312389512482e+00
	9.999999999793097e+00
	9.999993917960378e+00
	9.993490818086467e+00
	9.993490818076873e+00
	5.499888127436247e-01
	8.638512684004616e-02
	1.115709594514860e+00
	5.289393114946226e-01
	4.298379941294346e-03
	9.993490869915329e+00
	4.298521807398462e-03
	5.289591817169201e-01
	5.500316541866473e-01
	6.347778897318429e-01
	2.499294628487222e+00
	7.147524759554269e-12
	1.474339398191958e-06
	1.793058869000797e-05
	1.800884713907137e-05
	2.617834768403604e-12
	8.905490454989796e-06
	2.321583094988561e+00
	1.887085247334959e+00
	9.371070503350754e+00
	1.115750969699711e+00
	1.159425142595748e+00
	-1.031426931524848e-02
	1.000075968414338e-03
14		7.280000000000006e-08
	1.000000000000000e+01
	1.275000000000000e+00
	1.159407032346143e+00
	9.371053593260958e+00
	1.115732852338111e+00
	1.887076396619705e+00
	2.499276714067210e+00
	2.321583094998406e+00
	3.660211347954216e+00
	5.289502271058576e-01
	4.298521818099050e-03
	6.347597028037699e-01
	8.640860212343678e-02
	5.500134547888648e-01
	9.993490818104938e+00
	9.233493788280708e+00
	9.233339922073569e+00
	9.479670973747423e+00
	6.119616649301560e-01
	5.997373657483353e-02
	1.293060179319683e+00
	6.812432182773875e-01
	4.880281805973169e+00
	4.883838311321053e+00
	6.081073437244853e-01
	1.289223358067320e+00
	9.999700026660690e+00
	9.371023849818432e+00
	9.233312389552111e+00
	9.999999999793097e+00
	9.999993917960380e+00
	9.993490818094186e+00
	9.993490818084592e+00
	5.499888126741550e-01
	8.638512690058613e-02
	1.115709593798818e+00
	5.289393115006765e-01
	4.298379954099433e-03
	9.993490869923042e+00
	4.298521820211440e-03
	5.289591817229775e-01
	5.500316541171166e-01
	6.347778897458856e-01
	2.499294628500259e+00
	7.147328735801484e-12
	1.474339359112107e-06
	1.793058870174901e-05
	1.800884714408591e-05
	2.617277271646512e-12
	8.905490457746705e-06
	2.321583094998853e+00
	1.887085247343031e+00
	9.371070503347314e+00
	1.115750968983647e+00
	1.159425142608266e+00
	-1.031426930763324e-02
	1.000075968413644e-03
15		8.280000000000007e-08
	1.000000000000000e+01
	1.275000000000000e+00
	1.159407032358016e+00
	9.371053593258468e+00
	1.115732851655379e+00
	1.887076396627446e+00
	2.499276714079868e+00
	2.321583095008537e+00
	3.660211347954575e+00
	5.289502271121348e-01
	4.298521832762314e-03
	6.347597028244938e-01
	8.640860219059754e-02
	5.500134547301123e-01
	9.993490818113379e+00
	9.233493788322169e+00
	9.233339922115126e+00
	9.479670973766058e+00
	6.119616649301514e-01
	5.997373657482623e-02
	1.293060179319677e+00
	6.812432182773852e-01
	4.880281805973152e+00
	4.883838311315432e+00
	6.081073437244807e-01
	1.289223358067314e+00
	9.999700026660690e+00
	9.371023849815941e+00
	9.233312389593735e+00
	9.999999999793099e+00
	9.999993917960385e+00
	9.993490818102627e+00
	9.993490818093033e+00
	5.499888126154678e-01
	8.638512696779457e-02
	1.115709593116122e+00
	5.289393115069513e-01
	4.298379968750747e-03
	9.993490869931478e+00
	4.298521834873325e-03
	5.289591817292566e-01
	5.500316540583664e-01
	6.347778897666121e-01
	2.499294628512920e+00
	7.147886449399010e-12
	1.474339342369532e-06
	1.793058869892716e-05
	1.800884714786512e-05
	2.617381355055071e-12
	8.905490460432491e-06
	2.321583095008985e+00
	1.887085247350774e+00
	9.371070503344825e+00
	1.115750968300908e+00
	1.159425142620141e+00
	-1.031426929974621e-02
	1.000075968412339e-03
16		9.280000000000008e-08
	1.000000000000000e+01
	1.275000000000000e+00
	1.159407032369059e+00
	9.371053593256404e+00
	1.115732851004235e+00
	1.887076396634573e+00
	2.499276714091744e+00
	2.321583095018109e+00
	3.660211347954449e+00
	5.289502271183490e-01
	4.298521848170724e-03
	6.347597028492615e-01
	8.640860226197307e-02
	5.500134546808292e-01
	9.993490818121829e+00
	9.233493788364852e+00
	9.233339922157903e+00
	9.479670973784916e+00
	6.119616649301556e-01
	5.997373657483072e-02
	1.293060179319682e+00
	6.812432182773883e-01
	4.880281805973132e+00
	4.883838311309624e+00
	6.081073437244846e-01
	1.289223358067319e+00
	9.999700026660690e+00
	9.371023849813874e+00
	9.233312389636566e+00
	9.999999999793099e+00
	9.999993917960385e+00
	9.993490818111077e+00
	9.993490818101485e+00
	5.499888125662230e-01
	8.638512703922806e-02
	1.115709592464992e+00
	5.289393115131629e-01
	4.298379984154175e-03
	9.993490869939926e+00
	4.298521850281805e-03
	5.289591817354717e-01
	5.500316540090794e-01
	6.347778897913786e-01
	2.499294628524798e+00
	7.147331337886698e-12
	1.474339304259283e-06
	1.793058871363116e-05
	1.800884715129288e-05
	2.616875683161823e-12
	8.905490462862080e-06
	2.321583095018557e+00
	1.887085247357902e+00
	9.371070503342759e+00
	1.115750967649757e+00
	1.159425142631186e+00
	-1.031426929163537e-02
	1.000075968409980e-03
17		1.028000000000001e-07
	1.000000000000000e+01
	1.275000000000000e+00
	1.159407032379232e+00
	9.371053593254857e+00
	1.115732850382853e+00
	1.887076396641019e+00
	2.499276714102723e+00
	2.321583095027012e+00
	3.660211347954029e+00
	5.289502271243295e-01
	4.298521863524536e-03
	6.347597028763262e-01
	8.640860233511602e-02
	5.500134546400574e-01
	9.993490818130402e+00
	9.233493788408209e+00
	9.233339922201305e+00
	9.479670973803811e+00
	6.119616649301564e-01
	5.997373657483056e-02
	1.293060179319682e+00
	6.812432182773883e-01
	4.880281805973107e+00
	4.883838311303717e+00
	6.081073437244854e-01
	1.289223358067319e+00
	9.999700026660690e+00
	9.371023849812328e+00
	9.233312389680014e+00
	9.999999999793095e+00
	9.999993917960387e+00
	9.993490818119652e+00
	9.993490818110057e+00
	5.499888125254992e-01
	8.638512711240523e-02
	1.115709591843644e+00
	5.289393115191406e-01
	4.298379999499124e-03
	9.993490869948497e+00
	4.298521865634947e-03
	5.289591817414538e-01
	5.500316539683098e-01
	6.347778898184461e-01
	2.499294628535778e+00
	7.147938491103289e-12
	1.474339288031162e-06
	1.793058871345666e-05
	1.800884715380963e-05
	2.617139577970606e-12
	8.905490465128930e-06
	2.321583095027459e+00
	1.887085247364350e+00
	9.371070503341215e+00
	1.115750967028367e+00
	1.159425142641360e+00
	-1.031426928333445e-02
	1.000075968408176e-03
18		1.128000000000001e-07
	1.000000000000000e+01
	1.275000000000000e+00
	1.159407032388500e+00
	9.371053593253913e+00
	1.115732849789650e+00
	1.887076396646905e+00
	2.499276714112956e+00
	2.321583095035329e+00
	3.660211347953505e+00
	5.289502271299793e-01
	4.298521878287935e-03
	6.347597029040467e-01
	8.640860240844683e-02
	5.500134546067313e-01
	9.993490818138987e+00
	9.233493788451899e+00
	9.233339922245044e+00
	9.479670973822591e+00
	6.119616649301576e-01
	5.997373657483321e-02
	1.293060179319684e+00
	6.812432182773908e-01
	4.880281805973079e+00
	4.883838311297757e+00
	6.081073437244863e-01
	1.289223358067321e+00
	9.999700026660690e+00
	9.371023849811385e+00
	9.233312389723793e+00
	9.999999999793095e+00
	9.999993917960389e+00
	9.993490818128238e+00
	9.993490818118643e+00
	5.499888124921963e-01
	8.638512718578091e-02
	1.115709591250455e+00
	5.289393115247881e-01
	4.298380014260266e-03
	9.993490869957084e+00
	4.298521880399006e-03
	5.289591817471049e-01
	5.500316539349795e-01
	6.347778898461655e-01
	2.499294628546012e+00
	7.147349552483195e-12
	1.474339251069301e-06
	1.793058872920041e-05
	1.800884715623472e-05
	2.616793066956280e-12
	8.905490467121910e-06
	2.321583095035777e+00
	1.887085247370237e+00
	9.371070503340274e+00
	1.115750966435158e+00
	1.159425142650630e+00
	-1.031426927480972e-02
	1.000075968406539e-03
19		1.228000000000001e-07
	1.000000000000000e+01
	1.275000000000000e+00
	1.159407032396689e+00
	9.371053593253135e+00
	1.115732849222969e+00
	1.887076396651942e+00
	2.499276714122038e+00
	2.321583095042693e+00
	3.660211347952735e+00
	5.289502271351472e-01
	4.298521891897271e-03
	6.347597029313274e-01
	8.640860248017632e-02
	5.500134545800769e-01
	9.993490818146878e+00
	9.233493788495247e+00
	9.233339922288446e+00
	9.479670973840580e+00
	6.119616649301556e-01
	5.997373657482842e-02
	1.293060179319681e+00
	6.812432182773893e-01
	4.880281805973047e+00
	4.883838311291820e+00
	6.081073437244844e-01
	1.289223358067318e+00
	9.999700026660689e+00
	9.371023849810605e+00
	9.233312389767224e+00
	9.999999999793097e+00
	9.999993917960390e+00
	9.993490818136125e+00
	9.993490818126535e+00
	5.499888124655763e-01
	8.638512725753388e-02
	1.115709590683808e+00
	5.289393115299539e-01
	4.298380027863690e-03
	9.993490869964974e+00
	4.298521894007886e-03
	5.289591817522740e-01
	5.500316539083272e-01
	6.347778898734490e-01
	2.499294628555095e+00
	7.147579403343762e-12
	1.474339235530840e-06
	1.793058872959550e-05
	1.800884715768772e-05
	2.616938350047393e-12
	8.905490468888075e-06
	2.321583095043140e+00
	1.887085247375276e+00
	9.371070503339496e+00
	1.115750965868471e+00
	1.159425142658820e+00
	-1.031426926673440e-02
	1.000075968403125e-03
20		1.328000000000001e-07
	1.000000000000000e+01
	1.275000000000000e+00
	1.159407032403892e+00
	9.371053593252407e+00
	1.115732848681708e+00
	1.887076396656254e+00
	2.499276714130082e+00
	2.321583095049168e+00
	3.660211347951870e+00
	5.289502271398268e-01
	4.298521904154428e-03
	6.347597029572465e-01
	8.640860254941116e-02
	5.500134545592987e-01
	9.993490818153980e+00
	9.233493788537949e+00
	9.233339922331163e+00
	9.479670973857658e+00
	6.119616649301550e-01
	5.997373657482950e-02
	1.293060179319681e+00
	6.812432182773902e-01
	4.880281805973010e+00
	4.883838311285969e+00
	6.081073437244837e-01
	1.289223358067319e+00
	9.999700026660689e+00
	9.371023849809879e+00
	9.233312389809965e+00
	9.999999999793094e+00
	9.999993917960390e+00
	9.993490818143227e+00
	9.993490818133635e+00
	5.499888124448093e-01
	8.638512732680283e-02
	1.115709590142560e+00
	5.289393115346315e-01
	4.298380040120704e-03
	9.993490869972076e+00
	4.298521906265949e-03
	5.289591817569547e-01
	5.500316538875450e-01
	6.347778898993671e-01
	2.499294628563141e+00
	7.146957504977625e-12
	1.474339199974430e-06
	1.793058874506739e-05
	1.800884715934861e-05
	2.616715004399861e-12
	8.905490470382106e-06
	2.321583095049616e+00
	1.887085247379588e+00
	9.371070503338766e+00
	1.115750965327204e+00
	1.159425142666024e+00
	-1.031426925853118e-02
	1.000075968401987e-03
21		1.428000000000001e-07