Title: kicad schematic
Date: Wed Jul 01 12:12:59  2026
Plotname: Transient Analysis
Flags: real
No. Variables: 20
No. Points: 59      
Variables:
	0	time	time
	1	v(in)	voltage
	2	v(out)	voltage
	3	v(x1.net-_q1-pad2_)	voltage
	4	v(x1.net-_c2-pad1_)	voltage
	5	v(x1.net-_c1-pad1_)	voltage
	6	v(x1.net-_c1-pad2_)	voltage
	7	v(x1.net-_c2-pad2_)	voltage
	8	v(x1.b)	voltage
	9	v(x1.net-_q5-pad2_)	voltage
	10	v(x1.net-_q5-pad3_)	voltage
	11	v(x1.c)	voltage
	12	v(q.x1.q6#collCX)	voltage
	13	v(q.x1.q4#collCX)	voltage
	14	v(q.x1.q2#collCX)	voltage
	15	v(q.x1.q1#collCX)	voltage
	16	v(q.x1.q7#collCX)	voltage
	17	v(q.x1.q5#collCX)	voltage
	18	v(q.x1.q3#collCX)	voltage
	19	i(v1)	current
Values:
0		0.000000000000000e+00
	1.200000000000000e+01
	5.977505415336523e+00
	6.319829411206775e-01
	5.316224492502110e+00
	5.944966239493501e+00
	6.319829411206775e-01
	4.659020021499301e-01
	4.660644569802033e-01
	5.432746287223742e+00
	5.976613634131619e+00
	2.460566392108536e-03
	5.432745355978015e+00
	5.316223476228615e+00
	5.977505415330508e+00
	5.944340003729356e+00
	5.432746939750506e+00
	5.316225123549269e+00
	6.320003971717427e-01
	-8.856609683328641e-04
1		1.000000000000000e-05
	1.200000000000000e+01
	5.977129374122275e+00
	6.319811419056013e-01
	5.315850030275368e+00
	5.944592505039825e+00
	6.319800294372904e-01
	4.660559808473047e-01
	4.662418107148117e-01
	5.432241117985900e+00
	5.976232954960070e+00
	2.477096975626306e-03
	5.432240181207445e+00
	5.315849008153259e+00
	5.977129374116261e+00
	5.943966315475264e+00
	5.432241773770238e+00
	5.315850664231338e+00
	6.319985982572676e-01
	-8.857162685114300e-04
2		2.000000000000001e-05
	1.200000000000000e+01
	5.977010626807941e+00
	6.319844285729131e-01
	5.315727404950852e+00
	5.944469823065525e+00
	6.319840484698925e-01
	4.659741037539969e-01
	4.661357327824588e-01
	5.432175188842859e+00
	5.976116466615697e+00
	2.465917139206975e-03
	5.432174255259225e+00
	5.315726385905271e+00
	5.977010626801927e+00
	5.943843555079485e+00
	5.432175843281393e+00
	5.315728037844805e+00
	6.320018849586249e-01
	-8.857337313517734e-04
3		4.000000000000001e-05
	1.200000000000000e+01
	5.976935263010407e+00
	6.319865878636612e-01
	5.315649559010183e+00
	5.944391872844217e+00
	6.319867260831782e-01
	4.659018847236520e-01
	4.660634566563871e-01
	5.432173315402617e+00
	5.976043445977890e+00
	2.460644802740465e-03
	5.432172384201901e+00
	5.315648542742144e+00
	5.976935263004393e+00
	5.943765553286417e+00
	5.432173968000036e+00
	5.315650190143701e+00
	6.320040442304382e-01
	-8.857448142631753e-04
4		8.000000000000002e-05
	1.200000000000000e+01
	5.976940119177339e+00
	6.319864590012143e-01
	5.315654353399692e+00
	5.944396881403017e+00
	6.319863288903249e-01
	4.659047489610572e-01
	4.660681094785808e-01
	5.432181568665984e+00
	5.976048316838285e+00
	2.460645846667531e-03
	5.432180637322000e+00
	5.315653337054624e+00
	5.976940119171326e+00
	5.943770564957350e+00
	5.432182221168142e+00
	5.315654984406055e+00
	6.320039154804524e-01
	-8.857441001209795e-04
5		1.600000000000000e-04
	1.200000000000000e+01
	5.976934079052591e+00
	6.319866218822783e-01
	5.315648316966398e+00
	5.944390647572595e+00
	6.319867470042094e-01
	4.659007815847753e-01
	4.660623230059259e-01
	5.432173371109146e+00
	5.976042296469197e+00
	2.460543710246785e-03
	5.432172439936163e+00
	5.315647300735967e+00
	5.976934079046578e+00
	5.943764327196830e+00
	5.432174023675750e+00
	5.315648948068681e+00
	6.320040782587149e-01
	-8.857449883746189e-04
6		3.200000000000001e-04
	1.200000000000000e+01
	5.976939838450498e+00
	6.319864652197458e-01
	5.315654070103565e+00
	5.944396592837792e+00
	6.319863424789859e-01
	4.659044596093122e-01
	4.660678396734549e-01
	5.432181437023764e+00
	5.976048031081389e+00
	2.460669520346544e-03
	5.432180505676879e+00
	5.315653053753264e+00
	5.976939838444485e+00
	5.943770276234380e+00
	5.432182089532157e+00
	5.315654701116021e+00
	6.320039216962221e-01
	-8.857441414043385e-04
7		6.400000000000002e-04
	1.200000000000000e+01
	5.976933864874579e+00
	6.319866282881874e-01
	5.315648090937872e+00
	5.944390425687701e+00
	6.319867497962346e-01
	4.659005863121878e-01
	4.660621180116547e-01
	5.432173426860938e+00
	5.976042090067829e+00
	2.460518334763490e-03
	5.432172495694616e+00
	5.315647074715280e+00
	5.976933864868566e+00
	5.943764105159681e+00
	5.432174079420749e+00
	5.315648722033369e+00
	6.320040846669763e-01
	-8.857450198713854e-04
8		1.280000000000000e-03
	1.200000000000000e+01
	5.976939924808775e+00
	6.319864626171936e-01
	5.315654161617151e+00
	5.944396682330315e+00
	6.319863417339624e-01
	4.659045370908459e-01
	4.660679222905011e-01
	5.432181411840951e+00
	5.976048114259140e+00
	2.460680551007622e-03
	5.432180480491414e+00
	5.315653145263734e+00
	5.976939924802761e+00
	5.943770365788719e+00
	5.432182064352162e+00
	5.315654792632436e+00
	6.320039190925320e-01
	-8.857441287045918e-04
9		2.560000000000001e-03
	1.200000000000000e+01
	5.976933826675107e+00
	6.319866294469143e-01
	5.315648050347249e+00
	5.944390386092629e+00
	6.319867500158710e-01
	4.659005523969074e-01
	4.660620814780587e-01
	5.432173439694646e+00
	5.976042053303238e+00
	2.460513179103993e-03
	5.432172508529502e+00
	5.315647034126038e+00
	5.976933826669095e+00
	5.943764065537113e+00
	5.432174092253174e+00
	5.315648681441456e+00
	6.320040858262619e-01
	-8.857450254889548e-04
10		4.560000000000002e-03
	1.200000000000000e+01
	5.976939946939906e+00
	6.319864619442741e-01
	5.315654185112773e+00
	5.944396705270913e+00
	6.319863415771458e-01
	4.659045568008667e-01
	4.660679434587966e-01
	5.432181404457353e+00
	5.976048135536423e+00
	2.460683576884981e-03
	5.432180473107094e+00
	5.315653168758538e+00
	5.976939946933891e+00
	5.943770388745270e+00
	5.432182056969316e+00
	5.315654816128808e+00
	6.320039184193016e-01
	-8.857441254500138e-04
11		6.560000000000002e-03
	1.200000000000000e+01
	5.976933815804910e+00
	6.319866297742754e-01
	5.315648038680588e+00
	5.944390374824166e+00
	6.319867499392393e-01
	4.659005431206698e-01
	4.660620710943256e-01
	5.432173442910060e+00
	5.976042042783830e+00
	2.460511701587231e-03
	5.432172511745142e+00
	5.315647022459699e+00
	5.976933815798895e+00
	5.943764054260840e+00
	5.432174095468244e+00
	5.315648669774433e+00
	6.320040861538461e-01
	-8.857450270875132e-04
12		8.560000000000002e-03
	1.200000000000000e+01
	5.976939963146812e+00
	6.319864614480992e-01
	5.315654202346482e+00
	5.944396722074132e+00
	6.319863414858062e-01
	4.659045711523502e-01
	4.660679589580511e-01
	5.432181398318494e+00
	5.976048151097910e+00
	2.460685899256838e-03
	5.432180466967688e+00
	5.315653185991636e+00
	5.976939963140797e+00
	5.943770405560235e+00
	5.432182050831025e+00
	5.315654833363086e+00
	6.320039179228862e-01
	-8.857441230666452e-04
13		1.056000000000000e-02
	1.200000000000000e+01
	5.976933801564929e+00
	6.319866302086468e-01
	5.315648023497193e+00
	5.944390360060461e+00
	6.319867499678248e-01
	4.659005306488369e-01
	4.660620574806382e-01
	5.432173447992442e+00
	5.976042029083246e+00
	2.460509675403066e-03
	5.432172516827956e+00
	5.315647007276810e+00
	5.976933801558914e+00
	5.943764039486831e+00
	5.432174100550138e+00
	5.315648654590544e+00
	6.320040865884522e-01
	-8.857450291816280e-04
14		1.256000000000000e-02
	1.200000000000000e+01
	5.976939977147357e+00
	6.319864610209327e-01
	5.315654217281540e+00
	5.944396736589789e+00
	6.319863414653055e-01
	4.659045833899572e-01
	4.660679723420718e-01
	5.432181393421148e+00
	5.976048164571447e+00
	2.460687903869069e-03
	5.432180462069921e+00
	5.315653200926199e+00
	5.976939977141342e+00
	5.943770420086023e+00
	5.432182045934157e+00
	5.315654848298628e+00
	6.320039174954855e-01
	-8.857441210077416e-04
15		1.456000000000000e-02
	1.200000000000000e+01
	5.976933788319558e+00
	6.319866306142488e-01
	5.315648009345685e+00
	5.944390346325806e+00
	6.319867499659129e-01
	4.659005191373710e-01
	4.660620448206339e-01
	5.432173452998720e+00
	5.976042016343746e+00
	2.460507728514455e-03
	5.432172521834635e+00
	5.315646993125770e+00
	5.976933788313543e+00
	5.943764025742559e+00
	5.432174105555956e+00
	5.315648640438569e+00
	6.320040869942867e-01
	-8.857450311294767e-04
16		1.656000000000000e-02
	1.200000000000000e+01
	5.976939990007158e+00
	6.319864606264944e-01
	5.315654231033234e+00
	5.944396749925466e+00
	6.319863414791929e-01
	4.659045945284900e-01
	4.660679846323334e-01
	5.432181388464689e+00
	5.976048176938241e+00
	2.460689817126014e-03
	5.432180457113074e+00
	5.315653214677439e+00
	5.976939990001143e+00
	5.943770433431052e+00
	5.432182040978146e+00
	5.315654862050778e+00
	6.320039171008154e-01
	-8.857441191165944e-04
17		1.856000000000000e-02
	1.200000000000000e+01
	5.976933775772830e+00
	6.319866309996784e-01
	5.315647995918940e+00
	5.944390333314056e+00
	6.319867499422277e-01
	4.659005083027258e-01
	4.660620328305777e-01
	5.432173457963155e+00
	5.976042004280234e+00
	2.460505836682478e-03
	5.432172526799449e+00
	5.315646979699467e+00
	5.976933775766815e+00
	5.943764012721674e+00
	5.432174110519949e+00
	5.315648627011376e+00
	6.320040873799475e-01
	-8.857450329745837e-04
18		2.056000000000001e-02
	1.200000000000000e+01
	5.976940001855544e+00
	6.319864602614058e-01
	5.315654243734341e+00
	5.944396762214494e+00
	6.319863415239760e-01
	4.659046046921542e-01
	4.660679959528269e-01
	5.432181383606916e+00
	5.976048188328648e+00
	2.460691649485042e-03
	5.432180452254947e+00
	5.315653227378131e+00
	5.976940001849529e+00
	5.943770445728729e+00
	5.432182036120795e+00
	5.315654874752315e+00
	6.320039167354974e-01
	-8.857441173741846e-04
19		2.256000000000001e-02
	1.200000000000000e+01
	5.976933763790661e+00
	6.319866313689203e-01
	5.315647983077536e+00
	5.944390320886259e+00
	6.319867499008588e-01
	4.659004980161404e-01
	4.660620213819124e-01
	5.432173462871717e+00
	5.976041992762521e+00
	2.460503988968460e-03
	5.432172531708371e+00
	5.315646966858484e+00
	5.976933763784646e+00
	5.943764000285128e+00
	5.432174115428085e+00
	5.315648614169540e+00
	6.320040877494195e-01
	-8.857450347366675e-04
20		2.456000000000001e-02
	1.200000000000000e+01
	5.976940013549532e+00
	6.319864599005217e-01
	5.315654256276989e+00
	5.944396774344034e+00
	6.319863415744366e-01
	4.659046146991497e-01
	4.660680071251205e-01
	5.432181378757006e+00
	5.976048199568252e+00
	2.460693471895415e-03
	5.432180447404687e+00
	5.315653239920371e+00
	5.976940013543517e+00
	5.943770457866819e+00
	5.432182031271303e+00
	5.315654887295388e+00
	6.320039163743836e-01
	-8.857441156544805e-04
21		2.656000000000001e-02
	1.200000000000000e+01
	5.976933752782696e+00
	6.319866317098950e-01
	5.315647971247426e+00
	5.944390309466661e+00
	6.319867498297860e-01
	4.659004886680598e-01
	4.660620108673287e-01
	5.432173467696637e+00
	5.976041982185650e+00
	2.460502219441918e-03
	5.432172536533619e+00
	5.315646955028758e+00
	5.976933752776682e+00
	5.943763988857458e+00
	5.432174120252606e+00
	5.315648602339022e+00
	6.320040880906221e-01
	-8.857450363554857e-04
22		2.856000000000001e-02
	1.200000000000000e+01
	5.976940024352204e+00
	6.319864595657021e-01
	5.315654267893871e+00
	5.944396785551129e+00
	6.319863416523389e-01
	4.659046238474041e-01
	4.660680174428030e-01
	5.432181374007641e+00
	5.976048209947794e+00
	2.460695223018780e-03
	5.432180442655000e+00
	5.315653251536879e+00
	5.976940024346189e+00
	5.943770469081843e+00
	5.432182026522331e+00
	5.315654898912671e+00
	6.320039160393365e-01
	-8.857441140658523e-04
23		3.056000000000001e-02
	1.200000000000000e+01
	5.976933741945245e+00
	6.319866320458736e-01
	5.315647959593611e+00
	5.944390298223468e+00
	6.319867497523739e-01
	4.659004794907496e-01
	4.660620005163736e-01
	5.432173472436480e+00
	5.976041971772509e+00
	2.460500461627708e-03
	5.432172541273786e+00
	5.315646943375319e+00
	5.976933741939230e+00
	5.943763977606308e+00
	5.432174124992057e+00
	5.315648590684805e+00
	6.320040884268288e-01
	-8.857450379492287e-04
24		3.256000000000001e-02
	1.200000000000000e+01
	5.976940034621129e+00
	6.319864592462162e-01
	5.315654278957850e+00
	5.944396796206051e+00
	6.319863417468954e-01
	4.659046324785330e-01
	4.660680272486574e-01
	5.432181369298295e+00
	5.976048219810998e+00
	2.460696932380149e-03
	5.432180437945351e+00
	5.315653262600502e+00
	5.976940034615114e+00
	5.943770479744328e+00
	5.432182021813362e+00
	5.315654909977037e+00
	6.320039157196238e-01
	-8.857441125557162e-04
25		3.456000000000001e-02
	1.200000000000000e+01
	5.976933732270965e+00
	6.319866323481135e-01
	5.315647949147487e+00
	5.944390288183886e+00
	6.319867496399567e-01
	4.659004714306588e-01
	4.660619912806231e-01
	5.432173477122086e+00
	5.976041962483718e+00
	2.460498798049352e-03
	5.432172545959678e+00
	5.315646932929528e+00
	5.976933732264950e+00
	5.943763967559576e+00
	5.432174129677299e+00
	5.315648580238311e+00
	6.320040887292939e-01
	-8.857450393719169e-04
26		3.656000000000002e-02
	1.200000000000000e+01
	5.976940043977927e+00
	6.319864589531053e-01
	5.315654289074510e+00
	5.944396805917225e+00
	6.319863418690271e-01
	4.659046402325123e-01
	4.660680361799748e-01
	5.432181364611553e+00
	5.976048228791596e+00
	2.460698568394770e-03
	5.432180433258333e+00
	5.315653272716842e+00
	5.976940043971912e+00
	5.943770489462435e+00
	5.432182017126976e+00
	5.315654920094059e+00
	6.320039154262886e-01
	-8.857441111797165e-04
27		3.856000000000002e-02
	1.200000000000000e+01
	5.976933723069381e+00
	6.319866326368718e-01
	5.315647939191662e+00
	5.944390278633175e+00
	6.319867495129021e-01
	4.659004638279732e-01
	4.660619824981497e-01
	5.432173481815550e+00
	5.976041953653720e+00
	2.460497171663167e-03
	5.432172550653414e+00
	5.315646922974019e+00
	5.976933723063366e+00
	5.943763958002036e+00
	5.432174134370413e+00
	5.315648570282127e+00
	6.320040890182765e-01
	-8.857450407250909e-04
28		4.056000000000002e-02
	1.200000000000000e+01
	5.976940052936898e+00
	6.319864586716534e-01
	5.315654298778702e+00
	5.944396815216630e+00
	6.319863420039458e-01
	4.659046476005840e-01
	4.660680447297884e-01
	5.432181360039717e+00
	5.976048237389918e+00
	2.460700173561102e-03
	5.432180428686235e+00
	5.315653282420730e+00
	5.976940052930884e+00
	5.943770498768496e+00
	5.432182012555481e+00
	5.315654929798603e+00
	6.320039151446126e-01
	-8.857441098622207e-04
29		4.256000000000002e-02
	1.200000000000000e+01
	5.976933714392732e+00
	6.319866329105167e-01
	5.315647929780019e+00
	5.944390269625501e+00
	6.319867493696356e-01
	4.659004567321786e-01
	4.660619742190290e-01
	5.432173486496158e+00
	5.976041945332267e+00
	2.460495586864318e-03
	5.432172555334276e+00
	5.315646913562672e+00
	5.976933714386718e+00
	5.943763948987894e+00
	5.432174139050685e+00
	5.315648560870137e+00
	6.320040892921446e-01
	-8.857450420010687e-04
30		4.456000000000002e-02
	1.200000000000000e+01
	5.976940061839382e+00
	6.319864583916229e-01
	5.315654308425215e+00
	5.944396824457838e+00
	6.319863421413658e-01
	4.659046549089204e-01
	4.660680532253199e-01
	5.432181355451660e+00
	5.976048245931646e+00
	2.460701776087642e-03
	5.432180424097917e+00
	5.315653292066940e+00
	5.976940061833368e+00
	5.943770508016325e+00
	5.432182007967763e+00
	5.315654939445468e+00
	6.320039148643581e-01
	-8.857441085530320e-04
31		4.656000000000002e-02
	1.200000000000000e+01
	5.976933706386214e+00
	6.319866331645790e-01
	5.315647921064444e+00
	5.944390261311483e+00
	6.319867492057296e-01
	4.659004502814093e-01
	4.660619665824382e-01
	5.432173491045437e+00
	5.976041937655750e+00
	2.460494055767890e-03
	5.432172559883788e+00
	5.315646904847365e+00
	5.976933706380199e+00
	5.943763940667876e+00
	5.432174143599647e+00
	5.315648552154233e+00
	6.320040895464287e-01
	-8.857450431784978e-04
32		4.856000000000003e-02
	1.200000000000000e+01
	5.976940069595721e+00
	6.319864581446633e-01
	5.315654316881415e+00
	5.944396832513072e+00
	6.319863423128553e-01
	4.659046611187191e-01
	4.660680606220148e-01
	5.432181350918690e+00
	5.976048253365782e+00
	2.460703285395193e-03
	5.432180419564722e+00
	5.315653300522880e+00
	5.976940069589706e+00
	5.943770516077389e+00
	5.432182003435105e+00
	5.315654947901987e+00
	6.320039146171772e-01
	-8.857441074123939e-04
33		5.056000000000003e-02
	1.200000000000000e+01
	5.976933698773978e+00
	6.319866334072203e-01
	5.315647912757600e+00
	5.944390253405393e+00
	6.319867490294533e-01
	4.659004442114672e-01
	4.660619593239262e-01
	5.432173495575599e+00
	5.976041930361131e+00
	2.460492555770630e-03
	5.432172564414170e+00
	5.315646896540776e+00
	5.976933698767963e+00
	5.943763932756057e+00
	5.432174148129502e+00
	5.315648543847074e+00
	6.320040897892909e-01
	-8.857450442979443e-04
34		5.256000000000003e-02
	1.200000000000000e+01
	5.976940076783427e+00
	6.319864579144728e-01
	5.315654324747496e+00
	5.944396839979796e+00
	6.319863425020327e-01
	4.659046667816005e-01
	4.660680674734953e-01
	5.432181346439718e+00
	5.976048260250682e+00
	2.460704749260503e-03
	5.432180415085544e+00
	5.315653308388722e+00
	5.976940076777412e+00
	5.943770523549547e+00
	5.432181998956428e+00
	5.315654955768373e+00
	6.320039143867668e-01
	-8.857441063553783e-04
35		5.456000000000003e-02
	1.200000000000000e+01
	5.976933691919688e+00
	6.319866336279802e-01
	5.315647905237644e+00
	5.944390246283525e+00
	6.319867488304195e-01
	4.659004388687144e-01
	4.660619527920999e-01
	5.432173500075064e+00
	5.976041923799531e+00
	2.460491117165725e-03
	5.432172568913831e+00
	5.315646889021046e+00
	5.976933691913674e+00
	5.943763925628982e+00
	5.432174152628680e+00
	5.315648536326821e+00
	6.320040900102701e-01
	-8.857450453059281e-04
36		5.656000000000003e-02
	1.200000000000000e+01
	5.976940083634787e+00
	6.319864576937774e-01
	5.315654332264394e+00
	5.944396847098668e+00
	6.319863427015464e-01
	4.659046721197326e-01
	4.660680740024561e-01
	5.432181341983335e+00
	5.976048266809938e+00
	2.460706186807121e-03
	5.432180410628965e+00
	5.315653315905396e+00
	5.976940083628772e+00
	5.943770530673623e+00
	5.432181994500330e+00
	5.315654963285569e+00
	6.320039141658520e-01
	-8.857441053478253e-04
37		5.856000000000004e-02
	1.200000000000000e+01
	5.976933685316197e+00
	6.319866338417378e-01
	5.315647897977658e+00
	5.944390239420930e+00
	6.319867486235607e-01
	4.659004337688243e-01
	4.660619465007886e-01
	5.432173504567590e+00
	5.976041917481391e+00
	2.460489697951913e-03
	5.432172573406545e+00
	5.315646881761277e+00
	5.976933685310183e+00
	5.943763918761348e+00
	5.432174157120928e+00
	5.315648529066543e+00
	6.320040902242465e-01
	-8.857450462770297e-04
38		6.056000000000004e-02
	1.200000000000000e+01
	5.976940089693793e+00
	6.319864574960001e-01
	5.315654338958772e+00
	5.944396853397699e+00
	6.319863429247674e-01
	4.659046766985968e-01
	4.660680797717576e-01
	5.432181337543236e+00
	5.976048272602529e+00
	2.460707560048249e-03
	5.432180406188696e+00
	5.315653322599577e+00
	5.976940089687778e+00
	5.943770536977312e+00
	5.432181990060497e+00
	5.315654969980224e+00
	6.320039139678575e-01
	-8.857441044567952e-04
39		6.256000000000003e-02
	1.200000000000000e+01
	5.976933679019078e+00
	6.319866340463265e-01
	5.315647891035449e+00
	5.944390232875580e+00
	6.319867484067790e-01
	4.659004289644028e-01
	4.660619405032579e-01
	5.432173508991423e+00
	5.976041911458333e+00
	2.460488302894246e-03
	5.432172577830556e+00
	5.315646874819273e+00
	5.976933679013063e+00
	5.943763912211178e+00
	5.432174161544491e+00
	5.315648522124054e+00
	6.320040904290534e-01
	-8.857450472030767e-04
40		6.456000000000003e-02
	1.200000000000000e+01
	5.976940095505043e+00
	6.319864573055607e-01
	5.315654345396184e+00
	5.944396859440228e+00
	6.319863431560624e-01
	4.659046810381429e-01
	4.660680853034752e-01
	5.432181333178983e+00
	5.976048278156981e+00
	2.460708914087757e-03
	5.432180401824282e+00
	5.315653329036802e+00
	5.976940095499028e+00
	5.943770543024325e+00
	5.432181985696500e+00
	5.315654976417905e+00
	6.320039137772011e-01
	-8.857441036021995e-04
41		6.656000000000004e-02
	1.200000000000000e+01
	5.976933673478373e+00
	6.319866342292441e-01
	5.315647884878530e+00
	5.944390227112694e+00
	6.319867481676219e-01
	4.659004248841521e-01
	4.660619352309178e-01
	5.432173513399877e+00
	5.976041906167162e+00
	2.460486969425278e-03
	5.432172582239164e+00
	5.315646868662531e+00
	5.976933673472359e+00
	5.943763906443989e+00
	5.432174165952693e+00
	5.315648515966870e+00
	6.320040906121873e-01
	-8.857450480178862e-04
42		6.856000000000004e-02
	1.200000000000000e+01
	5.976940101173514e+00
	6.319864571191233e-01
	5.315654351686026e+00
	5.944396865335220e+00
	6.319863433920352e-01
	4.659046852391745e-01
	4.660680906982493e-01
	5.432181328809857e+00
	5.976048283572161e+00
	2.460710257523505e-03
	5.432180397454998e+00
	5.315653335326463e+00
	5.976940101167499e+00
	5.943770548923706e+00
	5.432181981327628e+00
	5.315654982708011e+00
	6.320039135905469e-01
	-8.857441027686009e-04
43		7.056000000000004e-02
	1.200000000000000e+01
	5.976933668328046e+00
	6.319866344006497e-01
	5.315647879127328e+00
	5.944390221753944e+00
	6.319867479162945e-01
	4.659004211785762e-01
	4.660619303328699e-01
	5.432173517763593e+00
	5.976041901252986e+00
	2.460485667253764e-03
	5.432172586603023e+00
	5.315646862911491e+00
	5.976933668322031e+00
	5.943763901081209e+00
	5.432174170316168e+00
	5.315648510215414e+00
	6.320040907838083e-01
	-8.857450487752873e-04
44		7.256000000000004e-02
	1.200000000000000e+01
	5.976940106122613e+00
	6.319864569534125e-01
	5.315654357229014e+00
	5.944396870485931e+00
	6.319863436493576e-01
	4.659046887519750e-01
	4.660680954033570e-01
	5.432181324435006e+00
	5.976048288290650e+00
	2.460711542377527e-03
	5.432180393080012e+00
	5.315653340869298e+00
	5.976940106116598e+00
	5.943770554078310e+00
	5.432181976953010e+00
	5.315654988251248e+00
	6.320039134246209e-01
	-8.857441020407921e-04
45		7.456000000000004e-02
	1.200000000000000e+01
	5.976933663548603e+00
	6.319866345613822e-01
	5.315647873760732e+00
	5.944390216778847e+00
	6.319867476537057e-01
	4.659004178284119e-01
	4.660619257904176e-01
	5.432173522085796e+00
	5.976041896697013e+00
	2.460484394930761e-03
	5.432172590925354e+00
	5.315646857545043e+00
	5.976933663542589e+00
	5.943763896102337e+00
	5.432174174638142e+00
	5.315648504848577e+00
	6.320040909447555e-01
	-8.857450494781465e-04
46		7.656000000000004e-02
	1.200000000000000e+01
	5.976940110947942e+00
	6.319864567915933e-01
	5.315654362643269e+00
	5.944396875508272e+00
	6.319863439111437e-01
	4.659046921450892e-01
	4.660680999897572e-01
	5.432181320200670e+00
	5.976048292893165e+00
	2.460712817990751e-03
	5.432180388845546e+00
	5.315653346283403e+00
	5.976940110941928e+00
	5.943770559104453e+00
	5.432181972718904e+00
	5.315654993665746e+00
	6.320039132625870e-01
	-8.857441013311849e-04
47		7.856000000000005e-02
	1.200000000000000e+01
	5.976933659181553e+00
	6.319866347102130e-01
	5.315647868822214e+00
	5.944390212230430e+00
	6.319867473786600e-01
	4.659004148730751e-01
	4.660619216433486e-01
	5.432173526439600e+00
	5.976041892541757e+00
	2.460483155929520e-03
	5.432172595279275e+00
	5.315646852606657e+00
	5.976933659175538e+00
	5.943763891550429e+00
	5.432174178991727e+00
	5.315648499909826e+00
	6.320040910937998e-01
	-8.857450501203599e-04
48		8.056000000000005e-02
	1.200000000000000e+01
	5.976940114737736e+00
	6.319864566594904e-01
	5.315654366981882e+00
	5.944396879459328e+00
	6.319863442031555e-01
	4.659046945494714e-01
	4.660681035834259e-01
	5.432181315902868e+00
	5.976048296491518e+00
	2.460714008557532e-03
	5.432180384547647e+00
	5.315653350621906e+00
	5.976940114731721e+00
	5.943770563058600e+00
	5.432181968421307e+00
	5.315654998004574e+00
	6.320039131302719e-01
	-8.857441007738623e-04
49		8.256000000000005e-02
	1.200000000000000e+01
	5.976933654847718e+00
	6.319866348580830e-01
	5.315647863917947e+00
	5.944390207716421e+00
	6.319867471021786e-01
	4.659004119500966e-01
	4.660619175281642e-01
	5.432173530695072e+00
	5.976041888416265e+00
	2.460481918991283e-03
	5.432172599534863e+00
	5.315646847702522e+00
	5.976933654841703e+00
	5.943763887032953e+00
	5.432174183246983e+00
	5.315648495005330e+00
	6.320040912418836e-01
	-8.857450507576885e-04
50		8.456000000000005e-02
	1.200000000000000e+01
	5.976940118762323e+00
	6.319864565206545e-01
	5.315654371565091e+00
	5.944396883653295e+00
	6.319863444889153e-01
	4.659046971769912e-01
	4.660681074021309e-01
	5.432181311654724e+00
	5.976048300317607e+00
	2.460715219437322e-03
	5.432180380299396e+00
	5.315653355204995e+00
	5.976940118756308e+00
	5.943770567255820e+00
	5.432181964173371e+00
	5.315655002588007e+00
	6.320039129912232e-01
	-8.857441001820113e-04
51		8.656000000000005e-02
	1.200000000000000e+01
	5.976933651506791e+00
	6.319866349771122e-01
	5.315647860045166e+00
	5.944390204229873e+00
	6.319867467963993e-01
	4.659004099748322e-01
	4.660619143648394e-01
	5.432173534929545e+00
	5.976041885250878e+00
	2.460480763733896e-03
	5.432172603769419e+00
	5.315646843829835e+00
	5.976933651500776e+00
	5.943763883543626e+00
	5.432174187481263e+00
	5.315648491132343e+00
	6.320040913611238e-01
	-8.857450512490013e-04
52		8.856000000000006e-02
	1.200000000000000e+01
	5.976940122029323e+00
	6.319864564036048e-01
	5.315654375361145e+00
	5.944396887063506e+00
	6.319863447968624e-01
	4.659046990819077e-01
	4.660681104945679e-01
	5.432181307414607e+00
	5.976048303410721e+00
	2.460716368146341e-03
	5.432180376059199e+00
	5.315653359000959e+00
	5.976940122023309e+00
	5.943770570668763e+00
	5.432181959933445e+00
	5.315655006384264e+00
	6.320039128739627e-01
	-8.857440997015700e-04
53		9.056000000000006e-02
	1.200000000000000e+01
	5.976933648315454e+00
	6.319866350918264e-01
	5.315647856327743e+00
	5.944390200898122e+00
	6.319867464859329e-01
	4.659004081420884e-01
	4.660619113449423e-01
	5.432173539141596e+00
	5.976041882230192e+00
	2.460479620412300e-03
	5.432172607981548e+00
	5.315646840112500e+00
	5.976933648309439e+00
	5.943763880209198e+00
	5.432174191693128e+00
	5.315648487414719e+00
	6.320040914760487e-01
	-8.857450517183156e-04
54		9.256000000000006e-02
	1.200000000000000e+01
	5.976940124850476e+00
	6.319864562996335e-01
	5.315654378694109e+00
	5.944396890012257e+00
	6.319863451182411e-01
	4.659047005618450e-01
	4.660681131595823e-01
	5.432181303197329e+00
	5.976048306072771e+00
	2.460717480430895e-03
	5.432180371841853e+00
	5.315653362333849e+00
	5.976940124844461e+00
	5.943770573619935e+00
	5.432181955716342e+00
	5.315655009717420e+00
	6.320039127697816e-01
	-8.857440992866947e-04
55		9.456000000000006e-02
	1.200000000000000e+01
	5.976933645402733e+00
	6.319866351985185e-01
	5.315647852899466e+00
	5.944390197854544e+00
	6.319867461671143e-01
	4.659004065745320e-01
	4.660619085921535e-01
	5.432173543390108e+00
	5.976041879480857e+00
	2.460478499774923e-03
	5.432172612230131e+00
	5.315646836684301e+00
	5.976933645396718e+00
	5.943763877163134e+00
	5.432174195941458e+00
	5.315648483986247e+00
	6.320040915829508e-01
	-8.857450521466568e-04
56		9.656000000000006e-02
	1.200000000000000e+01
	5.976940127840261e+00
	6.319864561908168e-01
	5.315654382202436e+00
	5.944396893135376e+00
	6.319863454351012e-01
	4.659047022031214e-01
	4.660681159862295e-01
	5.432181299010468e+00
	5.976048308898086e+00
	2.460718607222427e-03
	5.432180367654921e+00
	5.315653365842095e+00
	5.976940127834246e+00
	5.943770576745589e+00
	5.432181951529664e+00
	5.315655013225943e+00
	6.320039126607546e-01
	-8.857440988470204e-04
57		9.856000000000006e-02
	1.200000000000000e+01
	5.976933642695426e+00
	6.319866352992787e-01
	5.315647849684324e+00
	5.944390195023566e+00
	6.319867458420386e-01
	4.659004052024348e-01
	4.660619060362973e-01
	5.432173547576232e+00
	5.976041876928812e+00
	2.460477395712225e-03
	5.432172616416319e+00
	5.315646833469230e+00
	5.976933642689412e+00
	5.943763874329814e+00
	5.432174200127409e+00
	5.315648480770917e+00
	6.320040916839207e-01
	-8.857450525447902e-04
58		1.000000000000000e-01
	1.200000000000000e+01
	5.976940131601529e+00
	6.319864560528492e-01
	5.315654386594442e+00
	5.944396897064752e+00
	6.319863458060092e-01
	4.659047043440036e-01
	4.660681195447122e-01
	5.432181293491263e+00
	5.976048312437184e+00
	2.460720031542205e-03
	5.432180362135598e+00
	5.315653370233983e+00
	5.976940131595515e+00
	5.943770580678170e+00
	5.432181946010694e+00
	5.315655017618199e+00
	6.320039125225345e-01
	-8.857440982938927e-04
