Title: kicad schematic
Date: Wed Jul 01 16:07:09  2026
Plotname: Transient Analysis
Flags: real
No. Variables: 70
No. Points: 59      
Variables:
	0	time	time
	1	v(out)	voltage
	2	v(net-_r2-pad1_)	voltage
	3	v(in2)	voltage
	4	v(net-_x1-pad4_)	voltage
	5	v(in1)	voltage
	6	v(net-_x1-pad8_)	voltage
	7	v(x1.net-_d5-pad1_)	voltage
	8	v(x1.net-_c3-pad2_)	voltage
	9	v(x1.net-_d1-pad2_)	voltage
	10	v(x1.net-_d5-pad2_)	voltage
	11	v(x1.net-_d6-pad1_)	voltage
	12	v(x1.net-_c4-pad2_)	voltage
	13	v(unconnected-_x1-pad7_)	voltage
	14	v(x1.net-_c5-pad1_)	voltage
	15	v(x1.net-_q17-pad2_)	voltage
	16	v(x1.net-_c3-pad1_)	voltage
	17	v(x1.net-_q11-pad1_)	voltage
	18	v(x1.net-_d3-pad1_)	voltage
	19	v(x1.net-_c1-pad1_)	voltage
	20	v(x1.net-_q13-pad3_)	voltage
	21	v(x1.net-_q11-pad3_)	voltage
	22	v(x1.net-_m1-pad2_)	voltage
	23	v(x1.net-_q1-pad3_)	voltage
	24	v(x1.net-_c2-pad1_)	voltage
	25	v(x1.net-_q2-pad3_)	voltage
	26	v(x1.net-_c4-pad1_)	voltage
	27	v(x1.net-_q18-pad2_)	voltage
	28	v(x1.net-_q14-pad3_)	voltage
	29	v(x1.net-_c6-pad1_)	voltage
	30	v(x1.net-_m2-pad2_)	voltage
	31	v(x1.net-_d2-pad2_)	voltage
	32	v(unconnected-_x1-pad5_)	voltage
	33	v(x1.net-_q10-pad3_)	voltage
	34	v(x1.net-_q12-pad3_)	voltage
	35	v(x1.net-_d4-pad1_)	voltage
	36	v(unconnected-_x1-pad6_)	voltage
	37	v(x1.net-_d6-pad2_)	voltage
	38	v(q.x1.q24#collCX)	voltage
	39	v(q.x1.q10#collCX)	voltage
	40	v(q.x1.q12#collCX)	voltage
	41	v(q.x1.q16#collCX)	voltage
	42	v(q.x1.q11#collCX)	voltage
	43	v(q.x1.q9#collCX)	voltage
	44	v(q.x1.q15#collCX)	voltage
	45	v(q.x1.q21#collCX)	voltage
	46	v(q.x1.q23#collCX)	voltage
	47	v(q.x1.q20#collCX)	voltage
	48	v(q.x1.q14#collCX)	voltage
	49	v(q.x1.q4#collCX)	voltage
	50	v(q.x1.q8#collCX)	voltage
	51	v(q.x1.q6#collCX)	voltage
	52	v(q.x1.q2#collCX)	voltage
	53	v(q.x1.q17#collCX)	voltage
	54	v(q.x1.q18#collCX)	voltage
	55	v(q.x1.q3#collCX)	voltage
	56	v(q.x1.q5#collCX)	voltage
	57	v(q.x1.q7#collCX)	voltage
	58	v(q.x1.q1#collCX)	voltage
	59	v(q.x1.q19#collCX)	voltage
	60	v(q.x1.q13#collCX)	voltage
	61	v(q.x1.q22#collCX)	voltage
	62	v(q.x1.q28#collCX)	voltage
	63	v(q.x1.q26#collCX)	voltage
	64	v(q.x1.q27#collCX)	voltage
	65	v(q.x1.q25#collCX)	voltage
	66	i(v4)	current
	67	i(v1)	current
	68	i(v2)	current
	69	i(v3)	current
Values:
0		0.000000000000000e+00
	-6.001650617702999e-04
	-6.002412281785228e-01
	-1.000000000000000e+00
	-1.500000000000000e+01
	1.000000000000000e+00
	1.500000000000000e+01
	-1.890799881685388e-02
	-6.002087271602583e-04
	1.499820339711780e+01
	-6.003135197095984e-04
	-1.498040137182534e+01
	-1.498013996493184e+01
	-1.498013996493181e+01
	-1.499999962075235e+01
	-1.499999981034616e+01
	-1.471971969185099e+01
	-3.603001606620744e-01
	-1.499961005532652e+01
	-1.499999989425737e+01
	-1.499999999984846e+01
	1.499999999997363e+01
	-1.499918420124486e+01
	-1.499999999912145e+01
	-1.499999993154086e+01
	-1.499999999912145e+01
	-1.474930355261456e+01
	-1.499999997041250e+01
	-1.499999999985130e+01
	-1.499999994087721e+01
	-1.499918419805969e+01
	1.499789039150987e+01
	-4.435192221144633e+00
	-4.215478785915586e+00
	1.499999999996958e+01
	-1.499974714572462e+01
	-4.437170190145766e+00
	-1.498013996493423e+01
	-1.498040137180390e+01
	-1.499974714571439e+01
	-4.215478785901848e+00
	-1.474930355260471e+01
	-3.603001606510924e-01
	-1.499961005531064e+01
	-1.471971969183974e+01
	-1.890799880611595e-02
	-1.498013996491927e+01
	-1.498040137191526e+01
	-1.474930355260008e+01
	1.499999999995498e+01
	1.499789039146486e+01
	1.499999999995498e+01
	1.499999999995498e+01
	-1.471971969183656e+01
	-1.474930355260008e+01
	1.499999999995498e+01
	1.499999999995498e+01
	1.499820339707279e+01
	1.499999999995498e+01
	-1.890799970523332e-02
	-1.471971969183656e+01
	-6.003135347279969e-04
	-1.498040137181035e+01
	1.499999999995500e+01
	-1.890799881679948e-02
	1.499999999996997e+01
	-6.348273018375039e-10
	9.993969295536933e-07
	-1.813502126246647e-11
	-1.433528476479928e-09
1		5.000000000000000e-04
	-6.001650614123367e-04
	-6.002412281538881e-01
	-1.000000000000000e+00
	-1.500000000000000e+01
	1.000000000000000e+00
	1.500000000000000e+01
	-1.890799048865329e-02
	-6.002087267744914e-04
	1.499820340945113e+01
	-6.003135192755473e-04
	-1.498040166466851e+01
	-1.498014021056126e+01
	-1.498014021056148e+01
	-1.499999962075361e+01
	-1.499999981034684e+01
	-1.471971972507698e+01
	-3.603001602106142e-01
	-1.499961004064618e+01
	-1.499999989425314e+01
	-1.499999999984199e+01
	1.499999999997637e+01
	-1.499918420531767e+01
	-1.499999999912861e+01
	-1.499999993155225e+01
	-1.499999999913853e+01
	-1.474930368316825e+01
	-1.499999997041630e+01
	-1.499999999986875e+01
	-1.499999994088438e+01
	-1.499918420777676e+01
	1.499789037292833e+01
	-4.435192342839591e+00
	-4.215478905472935e+00
	1.499999999996545e+01
	-1.499974718537312e+01
	-4.437170299692591e+00
	-1.498014021056344e+01
	-1.498040166464707e+01
	-1.499974718536289e+01
	-4.215478905459196e+00
	-1.474930368315840e+01
	-3.603001601996322e-01
	-1.499961004063029e+01
	-1.471971972506574e+01
	-1.890799047791534e-02
	-1.498014021054848e+01
	-1.498040166475842e+01
	-1.474930368315376e+01
	1.499999999995498e+01
	1.499789037288331e+01
	1.499999999995498e+01
	1.499999999995498e+01
	-1.471971972506255e+01
	-1.474930368315377e+01
	1.499999999995498e+01
	1.499999999995498e+01
	1.499820340940611e+01
	1.499999999995498e+01
	-1.890799137703183e-02
	-1.471971972506256e+01
	-6.003135342939458e-04
	-1.498040166465352e+01
	1.499999999995500e+01
	-1.890799048859901e-02
	1.499999999996997e+01
	-6.348326309080221e-10
	9.993969296152797e-07
	-1.813520167370797e-11
	-1.433498972303049e-09
2		1.000000000000000e-03
	-6.001650607533467e-04
	-6.002412281277945e-01
	-1.000000000000000e+00
	-1.500000000000000e+01
	1.000000000000000e+00
	1.500000000000000e+01
	-1.890797479039536e-02
	-6.002087260627066e-04
	1.499820343339386e+01
	-6.003135184897712e-04
	-1.498040189814564e+01
	-1.498014042250564e+01
	-1.498014042250585e+01
	-1.499999962075404e+01
	-1.499999981034703e+01
	-1.471971975738357e+01
	-3.603001591046863e-01
	-1.499961001335020e+01
	-1.499999989424550e+01
	-1.499999999983644e+01
	1.499999999997895e+01
	-1.499918420854846e+01
	-1.499999999912714e+01
	-1.499999993156380e+01
	-1.499999999912166e+01
	-1.474930376107769e+01
	-1.499999997041566e+01
	-1.499999999986995e+01
	-1.499999994088333e+01
	-1.499918420787801e+01
	1.499789036851885e+01
	-4.435192433257287e+00
	-4.215478998394934e+00
	1.499999999996860e+01
	-1.499974722772208e+01
	-4.437170387175547e+00
	-1.498014042250798e+01
	-1.498040189812420e+01
	-1.499974722771185e+01
	-4.215478998381195e+00
	-1.474930376106784e+01
	-3.603001590937042e-01
	-1.499961001333431e+01
	-1.471971975737233e+01
	-1.890797477965740e-02
	-1.498014042249302e+01
	-1.498040189823555e+01
	-1.474930376106321e+01
	1.499999999995498e+01
	1.499789036847383e+01
	1.499999999995498e+01
	1.499999999995498e+01
	-1.471971975736915e+01
	-1.474930376106321e+01
	1.499999999995498e+01
	1.499999999995498e+01
	1.499820343334884e+01
	1.499999999995498e+01
	-1.890797567877284e-02
	-1.471971975736915e+01
	-6.003135335081697e-04
	-1.498040189813065e+01
	1.499999999995499e+01
	-1.890797479034120e-02
	1.499999999996997e+01
	-6.348344072648615e-10
	9.993969296805140e-07
	-1.813518779592016e-11
	-1.433502164194245e-09
3		2.000000000000000e-03
	-6.001650596979570e-04
	-6.002412281835613e-01
	-1.000000000000000e+00
	-1.500000000000000e+01
	1.000000000000000e+00
	1.500000000000000e+01
	-1.890793706893486e-02
	-6.002087249146353e-04
	1.499820345795536e+01
	-6.003135171685200e-04
	-1.498040232521803e+01
	-1.498014083311064e+01
	-1.498014083311085e+01
	-1.499999962075487e+01
	-1.499999981034745e+01
	-1.471971981787463e+01
	-3.603001582131831e-01
	-1.499960998979785e+01
	-1.499999989423958e+01
	-1.499999999985009e+01
	1.499999999997377e+01
	-1.499918421259754e+01
	-1.499999999912289e+01
	-1.499999993157766e+01
	-1.499999999912939e+01
	-1.474930391393888e+01
	-1.499999997041601e+01
	-1.499999999985597e+01
	-1.499999994088402e+01
	-1.499918421251587e+01
	1.499789037610675e+01
	-4.435192549066741e+00
	-4.215479108547342e+00
	1.499999999997224e+01
	-1.499974728064372e+01
	-4.437170491646724e+00
	-1.498014083311311e+01
	-1.498040232519660e+01
	-1.499974728063349e+01
	-4.215479108533603e+00
	-1.474930391392903e+01
	-3.603001582022010e-01
	-1.499960998978197e+01
	-1.471971981786339e+01
	-1.890793705819702e-02
	-1.498014083309815e+01
	-1.498040232530795e+01
	-1.474930391392439e+01
	1.499999999995498e+01
	1.499789037606173e+01
	1.499999999995498e+01
	1.499999999995498e+01
	-1.471971981786021e+01
	-1.474930391392439e+01
	1.499999999995498e+01
	1.499999999995498e+01
	1.499820345791035e+01
	1.499999999995498e+01
	-1.890793795731031e-02
	-1.471971981786021e+01
	-6.003135321869186e-04
	-1.498040232520305e+01
	1.499999999995499e+01
	-1.890793706888078e-02
	1.499999999996997e+01
	-6.348344072648615e-10
	9.993969295410968e-07
	-1.813518779592016e-11
	-1.433494975500160e-09
4		4.000000000000000e-03
	-6.001650590550226e-04
	-6.002412282385562e-01
	-1.000000000000000e+00
	-1.500000000000000e+01
	1.000000000000000e+00
	1.500000000000000e+01
	-1.890788853312829e-02
	-6.002087242134816e-04
	1.499820344017917e+01
	-6.003135162558500e-04
	-1.498040277395595e+01
	-1.498014131988084e+01
	-1.498014131988093e+01
	-1.499999962075366e+01
	-1.499999981034679e+01
	-1.471971981946386e+01
	-3.603001600746700e-01
	-1.499961007145891e+01
	-1.499999989426236e+01
	-1.499999999986479e+01
	1.499999999997152e+01
	-1.499918421422699e+01
	-1.499999999912144e+01
	-1.499999993157209e+01
	-1.499999999911637e+01
	-1.474930410742524e+01
	-1.499999997041498e+01
	-1.499999999984253e+01
	-1.499999994088203e+01
	-1.499918421576182e+01
	1.499789036506614e+01
	-4.435192553851666e+00
	-4.215479083476419e+00
	1.499999999996569e+01
	-1.499974726193008e+01
	-4.437170471384655e+00
	-1.498014131988317e+01
	-1.498040277393451e+01
	-1.499974726191985e+01
	-4.215479083462681e+00
	-1.474930410741539e+01
	-3.603001600636880e-01
	-1.499961007144303e+01
	-1.471971981945262e+01
	-1.890788852239041e-02
	-1.498014131986822e+01
	-1.498040277404586e+01
	-1.474930410741076e+01
	1.499999999995497e+01
	1.499789036502112e+01
	1.499999999995497e+01
	1.499999999995497e+01
	-1.471971981944944e+01
	-1.474930410741076e+01
	1.499999999995497e+01
	1.499999999995497e+01
	1.499820344013416e+01
	1.499999999995497e+01
	-1.890788942150330e-02
	-1.471971981944944e+01
	-6.003135312742484e-04
	-1.498040277394097e+01
	1.499999999995500e+01
	-1.890788853307392e-02
	1.499999999996997e+01
	-6.348521708332555e-10
	9.993969294036096e-07
	-1.813486860680058e-11
	-1.433500457226344e-09
5		8.000000000000000e-03
	-6.001650657482613e-04
	-6.002412281542713e-01
	-1.000000000000000e+00
	-1.500000000000000e+01
	1.000000000000000e+00
	1.500000000000000e+01
	-1.890810392821660e-02
	-6.002087314720575e-04
	1.499820344582661e+01
	-6.003135245123284e-04
	-1.498040280789304e+01
	-1.498014140963916e+01
	-1.498014140963903e+01
	-1.499999962074717e+01
	-1.499999981034348e+01
	-1.471971943472917e+01
	-3.603001653034140e-01
	-1.499961012812089e+01
	-1.499999989427683e+01
	-1.499999999983836e+01
	1.499999999997606e+01
	-1.499918420909448e+01
	-1.499999999911920e+01
	-1.499999993158073e+01
	-1.499999999912222e+01
	-1.474930404079922e+01
	-1.499999997041359e+01
	-1.499999999986328e+01
	-1.499999994087948e+01
	-1.499918420600071e+01
	1.499789033546405e+01
	-4.435192603197916e+00
	-4.215479147854850e+00
	1.499999999997183e+01
	-1.499974729097111e+01
	-4.437170536622824e+00
	-1.498014140964172e+01
	-1.498040280787161e+01
	-1.499974729096088e+01
	-4.215479147841112e+00
	-1.474930404078937e+01
	-3.603001652924320e-01
	-1.499961012810500e+01
	-1.471971943471793e+01
	-1.890810391747839e-02
	-1.498014140962677e+01
	-1.498040280798295e+01
	-1.474930404078473e+01
	1.499999999995498e+01
	1.499789033541903e+01
	1.499999999995498e+01
	1.499999999995498e+01
	-1.471971943471474e+01
	-1.474930404078473e+01
	1.499999999995498e+01
	1.499999999995498e+01
	1.499820344578159e+01
	1.499999999995498e+01
	-1.890810481660408e-02
	-1.471971943471474e+01
	-6.003135395307268e-04
	-1.498040280787806e+01
	1.499999999995499e+01
	-1.890810392816137e-02
	1.499999999996997e+01
	-6.348255254806645e-10
	9.993969296143220e-07
	-1.813464656219566e-11
	-1.433521384930359e-09
6		1.600000000000000e-02
	-6.001650790842277e-04
	-6.002412282286849e-01
	-1.000000000000000e+00
	-1.500000000000000e+01
	1.000000000000000e+00
	1.500000000000000e+01
	-1.890873010939701e-02
	-6.002087459142063e-04
	1.499820345790017e+01
	-6.003135417726939e-04
	-1.498040312408931e+01
	-1.498014168691225e+01
	-1.498014168691234e+01
	-1.499999962074001e+01
	-1.499999981033997e+01
	-1.471971882664664e+01
	-3.603001928284407e-01
	-1.499961000335767e+01
	-1.499999989424333e+01
	-1.499999999985168e+01
	1.499999999997154e+01
	-1.499918420904504e+01
	-1.499999999912368e+01
	-1.499999993158944e+01
	-1.499999999912326e+01
	-1.474930389015487e+01
	-1.499999997041503e+01
	-1.499999999984126e+01
	-1.499999994088215e+01
	-1.499918421773894e+01
	1.499789034763753e+01
	-4.435193491285794e+00
	-4.215480178189242e+00
	1.499999999996767e+01
	-1.499974732598639e+01
	-4.437171452789758e+00
	-1.498014168691452e+01
	-1.498040312406787e+01
	-1.499974732597617e+01
	-4.215480178175503e+00
	-1.474930389014502e+01
	-3.603001928174587e-01
	-1.499961000334179e+01
	-1.471971882663540e+01
	-1.890873009865903e-02
	-1.498014168689956e+01
	-1.498040312417922e+01
	-1.474930389014039e+01
	1.499999999995497e+01
	1.499789034759252e+01
	1.499999999995497e+01
	1.499999999995497e+01
	-1.471971882663222e+01
	-1.474930389014039e+01
	1.499999999995497e+01
	1.499999999995497e+01
	1.499820345785515e+01
	1.499999999995497e+01
	-1.890873099780551e-02
	-1.471971882663222e+01
	-6.003135567910923e-04
	-1.498040312407432e+01
	1.499999999995499e+01
	-1.890873010934228e-02
	1.499999999996997e+01
	-6.348326309080221e-10
	9.993969294282879e-07
	-1.813506289582989e-11
	-1.433535581907286e-09
7		3.200000000000000e-02
	-6.001650835934430e-04
	-6.002412282045778e-01
	-1.000000000000000e+00
	-1.500000000000000e+01
	1.000000000000000e+00
	1.500000000000000e+01
	-1.890897776163630e-02
	-6.002087508015629e-04
	1.499820344853146e+01
	-6.003135477684094e-04
	-1.498040205575120e+01
	-1.498014081999631e+01
	-1.498014081999650e+01
	-1.499999962073693e+01
	-1.499999981033847e+01
	-1.471971861364507e+01
	-3.603002629894223e-01
	-1.499961007375972e+01
	-1.499999989426235e+01
	-1.499999999984717e+01
	1.499999999997560e+01
	-1.499918421751822e+01
	-1.499999999912014e+01
	-1.499999993155991e+01
	-1.499999999911889e+01
	-1.474930491718155e+01
	-1.499999997041442e+01
	-1.499999999985830e+01
	-1.499999994088089e+01
	-1.499918421100015e+01
	1.499789038084922e+01
	-4.435196383092837e+00
	-4.215483319700478e+00
	1.499999999997195e+01
	-1.499974721497307e+01
	-4.437174233653509e+00
	-1.498014081999781e+01
	-1.498040205572977e+01
	-1.499974721496284e+01
	-4.215483319686739e+00
	-1.474930491717170e+01
	-3.603002629784403e-01
	-1.499961007374383e+01
	-1.471971861363382e+01
	-1.890897775089836e-02
	-1.498014081998285e+01
	-1.498040205584112e+01
	-1.474930491716707e+01
	1.499999999995497e+01
	1.499789038080420e+01
	1.499999999995497e+01
	1.499999999995497e+01
	-1.471971861363064e+01
	-1.474930491716707e+01
	1.499999999995497e+01
	1.499999999995497e+01
	1.499820344848644e+01
	1.499999999995497e+01
	-1.890897865005215e-02
	-1.471971861363064e+01
	-6.003135627868078e-04
	-1.498040205573622e+01
	1.499999999995500e+01
	-1.890897776158199e-02
	1.499999999996997e+01
	-6.348255254806645e-10
	9.993969294885556e-07
	-1.813504901804208e-11
	-1.433547752727193e-09
8		6.400000000000000e-02
	-6.001650831253623e-04
	-6.002412282076642e-01
	-1.000000000000000e+00
	-1.500000000000000e+01
	1.000000000000000e+00
	1.500000000000000e+01
	-1.890893375910342e-02
	-6.002087502941731e-04
	1.499820347337962e+01
	-6.003135470668571e-04
	-1.498039862470903e+01
	-1.498013725465698e+01
	-1.498013725465673e+01
	-1.499999962073776e+01
	-1.499999981033890e+01
	-1.471971863969291e+01
	-3.603003416734223e-01
	-1.499961004475812e+01
	-1.499999989425453e+01
	-1.499999999984935e+01
	1.499999999997185e+01
	-1.499918421652137e+01
	-1.499999999912270e+01
	-1.499999993153738e+01
	-1.499999999912398e+01
	-1.474930727016764e+01
	-1.499999997041457e+01
	-1.499999999984320e+01
	-1.499999994088128e+01
	-1.499918421068968e+01
	1.499789039594372e+01
	-4.435200606377275e+00
	-4.215487750448133e+00
	1.499999999996731e+01
	-1.499974713400375e+01
	-4.437178201300917e+00
	-1.498013725465971e+01
	-1.498039862468760e+01
	-1.499974713399352e+01
	-4.215487750434394e+00
	-1.474930727015779e+01
	-3.603003416624403e-01
	-1.499961004474223e+01
	-1.471971863968167e+01
	-1.890893374836550e-02
	-1.498013725464476e+01
	-1.498039862479895e+01
	-1.474930727015315e+01
	1.499999999995498e+01
	1.499789039589870e+01
	1.499999999995498e+01
	1.499999999995498e+01
	-1.471971863967848e+01
	-1.474930727015315e+01
	1.499999999995498e+01
	1.499999999995498e+01
	1.499820347333460e+01
	1.499999999995498e+01
	-1.890893464751840e-02
	-1.471971863967848e+01
	-6.003135620852555e-04
	-1.498039862469405e+01
	1.499999999995500e+01
	-1.890893375904894e-02
	1.499999999996997e+01
	-6.348148673396281e-10
	9.993969294808395e-07
	-1.813509065140551e-11
	-1.433551957696899e-09
9		1.280000000000000e-01
	-6.001651027472183e-04
	-6.002412281893539e-01
	-1.000000000000000e+00
	-1.500000000000000e+01
	1.000000000000000e+00
	1.500000000000000e+01
	-1.890980595907322e-02
	-6.002087715542947e-04
	1.499820349982222e+01
	-6.003135722728025e-04
	-1.498040001420079e+01
	-1.498013861604207e+01
	-1.498013861604210e+01
	-1.499999962072292e+01
	-1.499999981033141e+01
	-1.471971765156495e+01
	-3.603003317681012e-01
	-1.499961008741805e+01
	-1.499999989426609e+01
	-1.499999999984786e+01
	1.499999999997552e+01
	-1.499918422068002e+01
	-1.499999999912031e+01
	-1.499999993153357e+01
	-1.499999999911885e+01
	-1.474930730154824e+01
	-1.499999997041532e+01
	-1.499999999985930e+01
	-1.499999994088289e+01
	-1.499918420824990e+01
	1.499789042044848e+01
	-4.435201900610676e+00
	-4.215489017791121e+00
	1.499999999997193e+01
	-1.499974711782906e+01
	-4.437179596439258e+00
	-1.498013861604457e+01
	-1.498040001417936e+01
	-1.499974711781883e+01
	-4.215489017777383e+00
	-1.474930730153838e+01
	-3.603003317571191e-01
	-1.499961008740216e+01
	-1.471971765155370e+01
	-1.890980594833522e-02
	-1.498013861602962e+01
	-1.498040001429070e+01
	-1.474930730153375e+01
	1.499999999995498e+01
	1.499789042040346e+01
	1.499999999995498e+01
	1.499999999995498e+01
	-1.471971765155052e+01
	-1.474930730153375e+01
	1.499999999995498e+01
	1.499999999995498e+01
	1.499820349977721e+01
	1.499999999995498e+01
	-1.890980684752138e-02
	-1.471971765155052e+01
	-6.003135872912009e-04
	-1.498040001418581e+01
	1.499999999995499e+01
	-1.890980595901869e-02
	1.499999999996997e+01
	-6.348237491238251e-10
	9.993969295266153e-07
	-1.813486860680058e-11
	-1.433583071697164e-09
10		2.280000000000000e-01
	-6.001651161694887e-04
	-6.002412282161006e-01
	-1.000000000000000e+00
	-1.500000000000000e+01
	1.000000000000000e+00
	1.500000000000000e+01
	-1.891040609031251e-02
	-6.002087860939431e-04
	1.499820344934314e+01
	-6.003135895221966e-04
	-1.498039973867426e+01
	-1.498013833082228e+01
	-1.498013833082202e+01
	-1.499999962071471e+01
	-1.499999981032736e+01
	-1.471971701532753e+01
	-3.603003110701345e-01
	-1.499960998063991e+01
	-1.499999989423703e+01
	-1.499999999984858e+01
	1.499999999997164e+01
	-1.499918421888665e+01
	-1.499999999912255e+01
	-1.499999993155480e+01
	-1.499999999912404e+01
	-1.474930649127111e+01
	-1.499999997041449e+01
	-1.499999999984367e+01
	-1.499999994088106e+01
	-1.499918420795562e+01
	1.499789044290292e+01
	-4.435201154579283e+00
	-4.215488050557179e+00
	1.499999999996728e+01
	-1.499974719811094e+01
	-4.437179094338153e+00
	-1.498013833082497e+01
	-1.498039973865282e+01
	-1.499974719810071e+01
	-4.215488050543441e+00
	-1.474930649126126e+01
	-3.603003110591526e-01
	-1.499960998062402e+01
	-1.471971701531630e+01
	-1.891040607957462e-02
	-1.498013833081002e+01
	-1.498039973876418e+01
	-1.474930649125663e+01
	1.499999999995497e+01
	1.499789044285790e+01
	1.499999999995497e+01
	1.499999999995497e+01
	-1.471971701531311e+01
	-1.474930649125663e+01
	1.499999999995497e+01
	1.499999999995497e+01
	1.499820344929812e+01
	1.499999999995497e+01
	-1.891040697878240e-02
	-1.471971701531311e+01
	-6.003136045405950e-04
	-1.498039973865928e+01
	1.499999999995499e+01
	-1.891040609025813e-02
	1.499999999996997e+01
	-6.348450654058979e-10
	9.993969294597486e-07
	-1.813511840698112e-11
	-1.433610063994450e-09
11		3.280000000000000e-01
	-6.001650913936036e-04
	-6.002412281891824e-01
	-1.000000000000000e+00
	-1.500000000000000e+01
	1.000000000000000e+00
	1.500000000000000e+01
	-1.890932603128949e-02
	-6.002087592536602e-04
	1.499820340796058e+01
	-6.003135577949369e-04
	-1.498039821750400e+01
	-1.498013670485741e+01
	-1.498013670485715e+01
	-1.499999962073150e+01
	-1.499999981033573e+01
	-1.471971822916988e+01
	-3.603003342437826e-01
	-1.499960995566894e+01
	-1.499999989423022e+01
	-1.499999999984822e+01
	1.499999999997554e+01
	-1.499918422079398e+01
	-1.499999999912037e+01
	-1.499999993159223e+01
	-1.499999999911891e+01
	-1.474930720629214e+01
	-1.499999997041375e+01
	-1.499999999985955e+01
	-1.499999994087972e+01
	-1.499918421100812e+01
	1.499789039311410e+01
	-4.435203877593106e+00
	-4.215490886399194e+00
	1.499999999997177e+01
	-1.499974733383758e+01
	-4.437181741216592e+00
	-1.498013670486054e+01
	-1.498039821748257e+01
	-1.499974733382735e+01
	-4.215490886385457e+00
	-1.474930720628229e+01
	-3.603003342328005e-01
	-1.499960995565306e+01
	-1.471971822915864e+01
	-1.890932602055156e-02
	-1.498013670484558e+01
	-1.498039821759392e+01
	-1.474930720627766e+01
	1.499999999995497e+01
	1.499789039306908e+01
	1.499999999995497e+01
	1.499999999995497e+01
	-1.471971822915546e+01
	-1.474930720627766e+01
	1.499999999995497e+01
	1.499999999995497e+01
	1.499820340791556e+01
	1.499999999995497e+01
	-1.890932691971833e-02
	-1.471971822915546e+01
	-6.003135728133353e-04
	-1.498039821748902e+01
	1.499999999995499e+01
	-1.890932603123521e-02
	1.499999999996997e+01
	-6.348450654058979e-10
	9.993969295270441e-07
	-1.813496575131524e-11
	-1.433564031372292e-09
12		4.280000000000000e-01
	-6.001650932150790e-04
	-6.002412282089353e-01
	-1.000000000000000e+00
	-1.500000000000000e+01
	1.000000000000000e+00
	1.500000000000000e+01
	-1.890937533948852e-02
	-6.002087612254280e-04
	1.499820346504445e+01
	-6.003135599967468e-04
	-1.498039877821558e+01
	-1.498013732820920e+01
	-1.498013732820895e+01
	-1.499999962073036e+01
	-1.499999981033516e+01
	-1.471971813797775e+01
	-3.603003377357993e-01
	-1.499961007616115e+01
	-1.499999989426308e+01
	-1.499999999984922e+01
	1.499999999997186e+01
	-1.499918421935865e+01
	-1.499999999912249e+01
	-1.499999993157435e+01
	-1.499999999912410e+01
	-1.474930721831841e+01
	-1.499999997041450e+01
	-1.499999999984279e+01
	-1.499999994088115e+01
	-1.499918421727666e+01
	1.499789043958606e+01
	-4.435208494934775e+00
	-4.215495804757820e+00
	1.499999999996749e+01
	-1.499974727020027e+01
	-4.437186329764745e+00
	-1.498013732821198e+01
	-1.498039877819415e+01
	-1.499974727019004e+01
	-4.215495804744083e+00
	-1.474930721830856e+01
	-3.603003377248173e-01
	-1.499961007614526e+01
	-1.471971813796651e+01
	-1.890937532875060e-02
	-1.498013732819703e+01
	-1.498039877830550e+01
	-1.474930721830392e+01
	1.499999999995497e+01
	1.499789043954104e+01
	1.499999999995497e+01
	1.499999999995497e+01
	-1.471971813796332e+01
	-1.474930721830392e+01
	1.499999999995497e+01
	1.499999999995497e+01
	1.499820346499943e+01
	1.499999999995497e+01
	-1.890937622792040e-02
	-1.471971813796332e+01
	-6.003135750151452e-04
	-1.498039877820060e+01
	1.499999999995499e+01
	-1.890937533943399e-02
	1.499999999996997e+01
	-6.348450654058979e-10
	9.993969294776617e-07
	-1.813503514025427e-11
	-1.433559951302676e-09
13		5.280000000000000e-01
	-6.001650760083890e-04
	-6.002412281770763e-01
	-1.000000000000000e+00
	-1.500000000000000e+01
	1.000000000000000e+00
	1.500000000000000e+01
	-1.890865568970344e-02
	-6.002087425861218e-04
	1.499820342934713e+01
	-6.003135380924885e-04
	-1.498039955639182e+01
	-1.498013809438113e+01
	-1.498013809438087e+01
	-1.499999962074261e+01
	-1.499999981034130e+01
	-1.471971899691091e+01
	-3.603003014272896e-01
	-1.499961012700652e+01
	-1.499999989427688e+01
	-1.499999999984791e+01
	1.499999999997533e+01
	-1.499918422076461e+01
	-1.499999999912042e+01
	-1.499999993157641e+01
	-1.499999999911886e+01
	-1.474930727695628e+01
	-1.499999997041500e+01
	-1.499999999985985e+01
	-1.499999994088217e+01
	-1.499918422081639e+01
	1.499789039025569e+01
	-4.435218402808709e+00
	-4.215506629622416e+00
	1.499999999997155e+01
	-1.499974727551755e+01
	-4.437196342300296e+00
	-1.498013809438421e+01
	-1.498039955637039e+01
	-1.499974727550732e+01
	-4.215506629608678e+00
	-1.474930727694643e+01
	-3.603003014163076e-01
	-1.499961012699064e+01
	-1.471971899689967e+01
	-1.890865567896555e-02
	-1.498013809436925e+01
	-1.498039955648174e+01
	-1.474930727694180e+01
	1.499999999995497e+01
	1.499789039021067e+01
	1.499999999995497e+01
	1.499999999995497e+01
	-1.471971899689648e+01
	-1.474930727694180e+01
	1.499999999995497e+01
	1.499999999995497e+01
	1.499820342930211e+01
	1.499999999995497e+01
	-1.890865657810646e-02
	-1.471971899689649e+01
	-6.003135531108869e-04
	-1.498039955637684e+01
	1.499999999995499e+01
	-1.890865568964928e-02
	1.499999999996997e+01
	-6.348450654058979e-10
	9.993969295573094e-07
	-1.813500738467866e-11
	-1.433521884530720e-09
14		6.280000000000000e-01
	-6.001650764161649e-04
	-6.002412281984821e-01
	-1.000000000000000e+00
	-1.500000000000000e+01
	1.000000000000000e+00
	1.500000000000000e+01
	-1.890862338208942e-02
	-6.002087430261317e-04
	1.499820345469901e+01
	-6.003135383994038e-04
	-1.498039972215935e+01
	-1.498013826388805e+01
	-1.498013826388780e+01
	-1.499999962074178e+01
	-1.499999981034087e+01
	-1.471971895988607e+01
	-3.603002680362457e-01
	-1.499961008260237e+01
	-1.499999989426481e+01
	-1.499999999984880e+01
	1.499999999997200e+01
	-1.499918421942452e+01
	-1.499999999912244e+01
	-1.499999993157574e+01
	-1.499999999912398e+01
	-1.474930662741968e+01
	-1.499999997041458e+01
	-1.499999999984277e+01
	-1.499999994088128e+01
	-1.499918421778180e+01
	1.499789045460358e+01
	-4.435229451880174e+00
	-4.215518587971056e+00
	1.499999999996775e+01
	-1.499974727533003e+01
	-4.437207667687120e+00
	-1.498013826389079e+01
	-1.498039972213792e+01
	-1.499974727531980e+01
	-4.215518587957318e+00
	-1.474930662740983e+01
	-3.603002680252637e-01
	-1.499961008258649e+01
	-1.471971895987484e+01
	-1.890862337135146e-02
	-1.498013826387584e+01
	-1.498039972224927e+01
	-1.474930662740520e+01
	1.499999999995497e+01
	1.499789045455856e+01
	1.499999999995497e+01
	1.499999999995497e+01
	-1.471971895987165e+01
	-1.474930662740520e+01
	1.499999999995497e+01
	1.499999999995497e+01
	1.499820345465399e+01
	1.499999999995497e+01
	-1.890862427049346e-02
	-1.471971895987165e+01
	-6.003135534178023e-04
	-1.498039972214437e+01
	1.499999999995499e+01
	-1.890862338203477e-02
	1.499999999996997e+01
	-6.348308545511827e-10
	9.993969295037948e-07
	-1.813496575131524e-11
	-1.433530363859070e-09
15		7.280000000000000e-01
	-6.001650934967469e-04
	-6.002412281926505e-01
	-1.000000000000000e+00
	-1.500000000000000e+01
	1.000000000000000e+00
	1.500000000000000e+01
	-1.890941763688269e-02
	-6.002087615319454e-04
	1.499820339521808e+01
	-6.003135604876550e-04
	-1.498039775976356e+01
	-1.498013627483350e+01
	-1.498013627483324e+01
	-1.499999962073006e+01
	-1.499999981033503e+01
	-1.471971812636222e+01
	-3.603003058860385e-01
	-1.499961013555137e+01
	-1.499999989427922e+01
	-1.499999999984834e+01
	1.499999999997514e+01
	-1.499918422074826e+01
	-1.499999999912047e+01
	-1.499999993156488e+01
	-1.499999999911898e+01
	-1.474930711763714e+01
	-1.499999997041331e+01
	-1.499999999985966e+01
	-1.499999994087876e+01
	-1.499918422166220e+01
	1.499789042888678e+01
	-4.435235410788346e+00
	-4.215524354313420e+00
	1.499999999997136e+01
	-1.499974723309315e+01
	-4.437213701694956e+00
	-1.498013627483655e+01
	-1.498039775974212e+01
	-1.499974723308292e+01
	-4.215524354299681e+00
	-1.474930711762729e+01
	-3.603003058750565e-01
	-1.499961013553549e+01
	-1.471971812635098e+01
	-1.890941762614477e-02
	-1.498013627482159e+01
	-1.498039775985348e+01
	-1.474930711762266e+01
	1.499999999995497e+01
	1.499789042884176e+01
	1.499999999995497e+01
	1.499999999995497e+01
	-1.471971812634779e+01
	-1.474930711762266e+01
	1.499999999995497e+01
	1.499999999995497e+01
	1.499820339517306e+01
	1.499999999995497e+01
	-1.890941852531502e-02
	-1.471971812634779e+01
	-6.003135755060534e-04
	-1.498039775974858e+01
	1.499999999995499e+01
	-1.890941763682840e-02
	1.499999999996997e+01