Title: kicad schematic
Date: Wed Jul 01 11:00:52  2026
Plotname: Transient Analysis
Flags: real
No. Variables: 51
No. Points: 59      
Variables:
	0	time	time
	1	v(output)	voltage
	2	v(input)	voltage
	3	v(x1.net-_i1-pad2_)	voltage
	4	v(x1.net-_q15-pad3_)	voltage
	5	v(x1.net-_q13-pad2_)	voltage
	6	v(x1.net-_q16-pad3_)	voltage
	7	v(x1.net-_q10-pad3_)	voltage
	8	v(x1.net-_q13-pad3_)	voltage
	9	v(x1.net-_q17-pad3_)	voltage
	10	v(x1.net-_q6-pad3_)	voltage
	11	v(x1.q19)	voltage
	12	v(unconnected-_x1-pad5_)	voltage
	13	v(x1.net-_q18-pad3_)	voltage
	14	v(x1.dv1)	voltage
	15	v(x1.net-_q1-pad2_)	voltage
	16	v(x1.net-_c1-pad2_)	voltage
	17	v(x1.net-_d1-pad2_)	voltage
	18	v(unconnected-_x1-pad3_)	voltage
	19	v(x1.net-_q8-pad3_)	voltage
	20	v(x1.net-_r4-pad2_)	voltage
	21	v(x1.net-_q3-pad3_)	voltage
	22	v(x1.net-_q7-pad3_)	voltage
	23	v(x1.net-_q5-pad3_)	voltage
	24	v(x1.net-_q4-pad3_)	voltage
	25	v(x1.net-_q3-pad1_)	voltage
	26	v(x1.net-_q11-pad2_)	voltage
	27	v(x1.net-_c1-pad1_)	voltage
	28	v(x1.net-_d3-pad2_)	voltage
	29	v(x1.dv2)	voltage
	30	v(x1.net-_q10-pad1_)	voltage
	31	v(q.x1.q13#collCX)	voltage
	32	v(q.x1.q10#collCX)	voltage
	33	v(q.x1.q6#collCX)	voltage
	34	v(q.x1.q11#collCX)	voltage
	35	v(q.x1.q12#collCX)	voltage
	36	v(q.x1.q14#collCX)	voltage
	37	v(q.x1.q1#collCX)	voltage
	38	v(q.x1.q7#collCX)	voltage
	39	v(q.x1.q4#collCX)	voltage
	40	v(q.x1.q3#collCX)	voltage
	41	v(q.x1.q5#collCX)	voltage
	42	v(q.x1.q8#collCX)	voltage
	43	v(q.x1.q9#collCX)	voltage
	44	v(q.x1.q2#collCX)	voltage
	45	v(q.x1.q18#collCX)	voltage
	46	v(q.x1.q19#collCX)	voltage
	47	v(q.x1.q17#collCX)	voltage
	48	v(q.x1.q16#collCX)	voltage
	49	v(q.x1.q15#collCX)	voltage
	50	i(v1)	current
Values:
0		0.000000000000000e+00
	4.989416098313177e+00
	1.500000000000000e+01
	1.060250254807183e+00
	4.965674829834525e-01
	1.435220820572578e+01
	4.925338206179719e-01
	1.475997507793855e+01
	1.494257304987648e+01
	1.492653154974043e+01
	1.475984942890464e+01
	5.998691907835118e-01
	5.998691907835116e-01
	5.564433168276079e+00
	6.010830312395163e+00
	5.996541638274830e-01
	4.459300384577025e+00
	4.616591155073711e+00
	1.247004469981404e-01
	4.934558507869420e-01
	6.296176347426594e-02
	7.555411616911913e-02
	4.067255247983552e+00
	3.909473909090930e+00
	4.070185026353851e+00
	4.459228013078995e+00
	1.350334365944526e+01
	4.748204003071665e+00
	5.339115544869820e+00
	5.674972928631098e+00
	1.413079319854028e+01
	6.010834391692900e+00
	1.413081026326731e+01
	1.350336073357562e+01
	4.748221170032818e+00
	4.045742629540808e-06
	1.435224324418304e+01
	4.459298960594943e+00
	4.748179955310333e+00
	1.350331965167359e+01
	4.459218412537563e+00
	4.070160814997705e+00
	3.909424955548750e+00
	4.067230976612909e+00
	4.459298960594943e+00
	1.492653104699224e+01
	1.492645858403806e+01
	1.494257304986150e+01
	1.060201405330806e+00
	1.435215890353319e+01
	-2.264935476310528e-04
1		2.000000000000000e-06
	4.989416098309630e+00
	1.500000000000000e+01
	1.060250254803933e+00
	4.965674829803635e-01
	1.435220820572897e+01
	4.925338206148823e-01
	1.475997507795402e+01
	1.494257304988384e+01
	1.492653154991094e+01
	1.475984942892012e+01
	5.998691907836861e-01
	5.998691907836859e-01
	5.564433168210674e+00
	6.010830312260179e+00
	5.996541638279888e-01
	4.459300384587648e+00
	4.616591155070951e+00
	1.247004469985444e-01
	4.934558507838554e-01
	6.296176347439064e-02
	7.555411616926877e-02
	4.067255247978092e+00
	3.909473909097720e+00
	4.070185026354643e+00
	4.459228013081880e+00
	1.350334365946252e+01
	4.748204002956561e+00
	5.339115544749367e+00
	5.674972928501106e+00
	1.413079319855739e+01
	6.010834391557915e+00
	1.413081026328442e+01
	1.350336073359288e+01
	4.748221169917714e+00
	4.045742628492385e-06
	1.435224324418623e+01
	4.459298960605566e+00
	4.748179955195225e+00
	1.350331965169085e+01
	4.459218412540448e+00
	4.070160814998502e+00
	3.909424955555540e+00
	4.067230976607446e+00
	4.459298960605566e+00
	1.492653104716276e+01
	1.492645858420874e+01
	1.494257304986886e+01
	1.060201405327556e+00
	1.435215890353639e+01
	-2.264935474482564e-04
2		4.000000000000001e-06
	4.989416098302592e+00
	1.500000000000000e+01
	1.060250254804277e+00
	4.965674829806914e-01
	1.435220820572640e+01
	4.925338206152110e-01
	1.475997507797668e+01
	1.494257304987935e+01
	1.492653155009103e+01
	1.475984942894277e+01
	5.998691907824065e-01
	5.998691907824064e-01
	5.564433168141277e+00
	6.010830312134081e+00
	5.996541638264699e-01
	4.459300384589108e+00
	4.616591155065062e+00
	1.247004469971780e-01
	4.934558507841837e-01
	6.296176347360526e-02
	7.555411616832632e-02
	4.067255247970810e+00
	3.909473909098071e+00
	4.070185026349373e+00
	4.459228013081320e+00
	1.350334365948830e+01
	4.748204002786052e+00
	5.339115544588205e+00
	5.674972928356995e+00
	1.413079319858248e+01
	6.010834391431819e+00
	1.413081026330950e+01
	1.350336073361866e+01
	4.748221169747205e+00
	4.045742629848071e-06
	1.435224324418366e+01
	4.459298960607026e+00
	4.748179955024716e+00
	1.350331965171664e+01
	4.459218412539888e+00
	4.070160814993232e+00
	3.909424955555891e+00
	4.067230976600164e+00
	4.459298960607026e+00
	1.492653104734284e+01
	1.492645858438900e+01
	1.494257304986437e+01
	1.060201405327900e+00
	1.435215890353382e+01
	-2.264935472690664e-04
3		8.000000000000001e-06
	4.989416098280059e+00
	1.500000000000000e+01
	1.060250254802843e+00
	4.965674829793276e-01
	1.435220820572513e+01
	4.925338206138473e-01
	1.475997507797063e+01
	1.494257304987793e+01
	1.492653155050709e+01
	1.475984942893672e+01
	5.998691907785370e-01
	5.998691907785368e-01
	5.564433167970469e+00
	6.010830311824600e+00
	5.996541638221284e-01
	4.459300384558416e+00
	4.616591155041050e+00
	1.247004469933263e-01
	4.934558507828110e-01
	6.296176347126495e-02
	7.555411616551794e-02
	4.067255247946982e+00
	3.909473909068757e+00
	4.070185026324258e+00
	4.459228013053601e+00
	1.350334365948312e+01
	4.748204002423527e+00
	5.339115544241809e+00
	5.674972928037278e+00
	1.413079319857587e+01
	6.010834391122339e+00
	1.413081026330290e+01
	1.350336073361348e+01
	4.748221169384680e+00
	4.045742632319510e-06
	1.435224324418239e+01
	4.459298960576334e+00
	4.748179954662191e+00
	1.350331965171146e+01
	4.459218412512170e+00
	4.070160814968116e+00
	3.909424955526578e+00
	4.067230976576337e+00
	4.459298960576334e+00
	1.492653104775891e+01
	1.492645858480548e+01
	1.494257304986295e+01
	1.060201405326466e+00
	1.435215890353255e+01
	-2.264935468560356e-04
4		1.600000000000000e-05
	4.989416098208505e+00
	1.500000000000000e+01
	1.060250254806802e+00
	4.965674829830920e-01
	1.435220820572678e+01
	4.925338206176115e-01
	1.475997507789407e+01
	1.494257304987596e+01
	1.492653155075516e+01
	1.475984942886017e+01
	5.998691907717972e-01
	5.998691907717971e-01
	5.564433167812103e+00
	6.010830311628268e+00
	5.996541638161087e-01
	4.459300384517407e+00
	4.616591154980627e+00
	1.247004469878195e-01
	4.934558507865628e-01
	6.296176346731625e-02
	7.555411616077951e-02
	4.067255247892033e+00
	3.909473909032749e+00
	4.070185026257920e+00
	4.459228013022637e+00
	1.350334365939047e+01
	4.748204002411239e+00
	5.339115544181528e+00
	5.674972927892799e+00
	1.413079319849103e+01
	6.010834390926005e+00
	1.413081026321806e+01
	1.350336073352084e+01
	4.748221169372394e+00
	4.045742625497168e-06
	1.435224324418403e+01
	4.459298960535324e+00
	4.748179954649906e+00
	1.350331965161880e+01
	4.459218412481206e+00
	4.070160814901773e+00
	3.909424955490569e+00
	4.067230976521391e+00
	4.459298960535324e+00
	1.492653104800698e+01
	1.492645858505380e+01
	1.494257304986098e+01
	1.060201405330425e+00
	1.435215890353419e+01
	-2.264935466245854e-04
5		3.200000000000001e-05
	4.989416098102896e+00
	1.500000000000000e+01
	1.060250254802949e+00
	4.965674829794284e-01
	1.435220820572931e+01
	4.925338206139468e-01
	1.475997507795052e+01
	1.494257304987414e+01
	1.492653155004668e+01
	1.475984942891662e+01
	5.998691907572290e-01
	5.998691907572289e-01
	5.564433167956305e+00
	6.010830312014532e+00
	5.996541638007598e-01
	4.459300384447452e+00
	4.616591154878096e+00
	1.247004469740412e-01
	4.934558507828749e-01
	6.296176345859092e-02
	7.555411615030910e-02
	4.067255247783847e+00
	3.909473908956917e+00
	4.070185026163304e+00
	4.459228012939708e+00
	1.350334365945921e+01
	4.748204002715958e+00
	5.339115544508134e+00
	5.674972928262854e+00
	1.413079319855350e+01
	6.010834391312267e+00
	1.413081026328053e+01
	1.350336073358957e+01
	4.748221169677111e+00
	4.045742628394481e-06
	1.435224324418657e+01
	4.459298960465370e+00
	4.748179954954622e+00
	1.350331965168755e+01
	4.459218412398279e+00
	4.070160814807164e+00
	3.909424955414737e+00
	4.067230976413200e+00
	4.459298960465370e+00
	1.492653104729849e+01
	1.492645858434462e+01
	1.494257304985915e+01
	1.060201405326572e+00
	1.435215890353673e+01
	-2.264935473170419e-04
6		6.400000000000001e-05
	4.989416098019772e+00
	1.500000000000000e+01
	1.060250254804099e+00
	4.965674829805247e-01
	1.435220820572922e+01
	4.925338206150433e-01
	1.475997507793397e+01
	1.494257304987869e+01
	1.492653154996794e+01
	1.475984942890007e+01
	5.998691907492387e-01
	5.998691907492386e-01
	5.564433167904177e+00
	6.010830311940524e+00
	5.996541637934910e-01
	4.459300384356893e+00
	4.616591154796849e+00
	1.247004469674870e-01
	4.934558507839452e-01
	6.296176345391588e-02
	7.555411614469906e-02
	4.067255247709533e+00
	3.909473908872603e+00
	4.070185026074912e+00
	4.459228012862504e+00
	1.350334365943935e+01
	4.748204002585202e+00
	5.339115544393048e+00
	5.674972928167006e+00
	1.413079319853526e+01
	6.010834391238260e+00
	1.413081026326229e+01
	1.350336073356972e+01
	4.748221169546356e+00
	4.045742631209937e-06
	1.435224324418648e+01
	4.459298960374810e+00
	4.748179954823871e+00
	1.350331965166768e+01
	4.459218412321076e+00
	4.070160814718765e+00
	3.909424955330424e+00
	4.067230976338893e+00
	4.459298960374810e+00
	1.492653104721975e+01
	1.492645858426579e+01
	1.494257304986371e+01
	1.060201405327722e+00
	1.435215890353664e+01
	-2.264935473968860e-04
7		1.280000000000000e-04
	4.989416098559489e+00
	1.500000000000000e+01
	1.060250254804552e+00
	4.965674829809507e-01
	1.435220820572615e+01
	4.925338206154698e-01
	1.475997507792443e+01
	1.494257304988060e+01
	1.492653154783382e+01
	1.475984942889053e+01
	5.998691908132200e-01
	5.998691908132199e-01
	5.564433169194981e+00
	6.010830313935742e+00
	5.996541638573669e-01
	4.459300384788507e+00
	4.616591155312292e+00
	1.247004470250778e-01
	4.934558507845079e-01
	6.296176349196402e-02
	7.555411619035683e-02
	4.067255248221295e+00
	3.909473909301457e+00
	4.070185026594195e+00
	4.459228013287614e+00
	1.350334365943015e+01
	4.748204004617049e+00
	5.339115546416413e+00
	5.674972930183607e+00
	1.413079319852459e+01
	6.010834393233479e+00
	1.413081026325162e+01
	1.350336073356052e+01
	4.748221171578201e+00
	4.045742629841783e-06
	1.435224324418341e+01
	4.459298960806422e+00
	4.748179956855716e+00
	1.350331965165848e+01
	4.459218412746179e+00
	4.070160815238052e+00
	3.909424955759278e+00
	4.067230976850651e+00
	4.459298960806422e+00
	1.492653104508562e+01
	1.492645858212955e+01
	1.494257304986562e+01
	1.060201405328175e+00
	1.435215890353357e+01
	-2.264935495416929e-04
8		2.560000000000000e-04
	4.989416099063780e+00
	1.500000000000000e+01
	1.060250254803202e+00
	4.965674829796716e-01
	1.435220820572837e+01
	4.925338206141911e-01
	1.475997507795987e+01
	1.494257304988610e+01
	1.492653155082210e+01
	1.475984942892597e+01
	5.998691908733937e-01
	5.998691908733936e-01
	5.564433168643054e+00
	6.010830312385670e+00
	5.996541639173932e-01
	4.459300385146443e+00
	4.616591155785351e+00
	1.247004470792844e-01
	4.934558507833429e-01
	6.296176352772014e-02
	7.555411623326416e-02
	4.067255248694226e+00
	3.909473909660027e+00
	4.070185027066155e+00
	4.459228013646483e+00
	1.350334365946862e+01
	4.748204003020528e+00
	5.339115544829909e+00
	5.674972928606676e+00
	1.413079319856394e+01
	6.010834391683407e+00
	1.413081026329097e+01
	1.350336073359898e+01
	4.748221169981681e+00
	4.045742631144452e-06
	1.435224324418563e+01
	4.459298961164360e+00
	4.748179955259196e+00
	1.350331965169695e+01
	4.459218413105041e+00
	4.070160815710011e+00
	3.909424956117848e+00
	4.067230977323582e+00
	4.459298961164360e+00
	1.492653104807392e+01
	1.492645858512080e+01
	1.494257304987112e+01
	1.060201405326825e+00
	1.435215890353579e+01
	-2.264935465359896e-04
9		5.120000000000001e-04
	4.989416097660699e+00
	1.500000000000000e+01
	1.060250254801081e+00
	4.965674829776523e-01
	1.435220820572668e+01
	4.925338206121720e-01
	1.475997507793187e+01
	1.494257304987871e+01
	1.492653154975123e+01
	1.475984942889797e+01
	5.998691907052173e-01
	5.998691907052172e-01
	5.564433167621758e+00
	6.010830311791188e+00
	5.996541637491418e-01
	4.459300384125084e+00
	4.616591154463476e+00
	1.247004469273944e-01
	4.934558507809987e-01
	6.296176342768721e-02
	7.555411611322466e-02
	4.067255247370763e+00
	3.909473908635920e+00
	4.070185025746227e+00
	4.459228012621393e+00
	1.350334365943502e+01
	4.748204002551244e+00
	5.339115544333100e+00
	5.674972928070133e+00
	1.413079319853284e+01
	6.010834391088925e+00
	1.413081026325987e+01
	1.350336073356538e+01
	4.748221169512400e+00
	4.045742627111328e-06
	1.435224324418393e+01
	4.459298960143002e+00
	4.748179954789909e+00
	1.350331965166335e+01
	4.459218412079970e+00
	4.070160814390084e+00
	3.909424955093740e+00
	4.067230976000118e+00
	4.459298960143002e+00
	1.492653104700305e+01
	1.492645858404886e+01
	1.494257304986373e+01
	1.060201405324704e+00
	1.435215890353409e+01
	-2.264935476231356e-04
10		9.120000000000002e-04
	4.989416098806275e+00
	1.500000000000000e+01
	1.060250254806197e+00
	4.965674829825171e-01
	1.435220820572714e+01
	4.925338206170359e-01
	1.475997507795122e+01
	1.494257304987145e+01
	1.492653154915759e+01
	1.475984942891732e+01
	5.998691908433392e-01
	5.998691908433391e-01
	5.564433168972518e+00
	6.010830313208816e+00
	5.996541638876822e-01
	4.459300384948495e+00
	4.616591155539219e+00
	1.247004470524848e-01
	4.934558507861239e-01
	6.296176350989649e-02
	7.555411621187580e-02
	4.067255248445755e+00
	3.909473909459170e+00
	4.070185026822109e+00
	4.459228013443981e+00
	1.350334365945705e+01
	4.748204003915767e+00
	5.339115545711334e+00
	5.674972929465322e+00
	1.413079319855436e+01
	6.010834392506552e+00
	1.413081026328139e+01
	1.350336073358741e+01
	4.748221170876922e+00
	4.045742629051833e-06
	1.435224324418440e+01
	4.459298960966412e+00
	4.748179956154430e+00
	1.350331965168538e+01
	4.459218412902542e+00
	4.070160815465967e+00
	3.909424955916989e+00
	4.067230977075109e+00
	4.459298960966412e+00
	1.492653104640939e+01
	1.492645858345464e+01
	1.494257304985647e+01
	1.060201405329819e+00
	1.435215890353456e+01
	-2.264935482061848e-04
11		1.312000000000000e-03
	4.989416098016548e+00
	1.500000000000000e+01
	1.060250254805221e+00
	4.965674829815863e-01
	1.435220820572644e+01
	4.925338206161053e-01
	1.475997507793683e+01
	1.494257304986874e+01
	1.492653155070090e+01
	1.475984942890294e+01
	5.998691907471488e-01
	5.998691907471487e-01
	5.564433167640209e+00
	6.010830311528071e+00
	5.996541637908339e-01
	4.459300384374850e+00
	4.616591154797697e+00
	1.247004469650087e-01
	4.934558507850104e-01
	6.296176345258901e-02
	7.555411614310682e-02
	4.067255247706247e+00
	3.909473908886907e+00
	4.070185026078924e+00
	4.459228012873998e+00
	1.350334365944088e+01
	4.748204002363190e+00
	5.339115544123747e+00
	5.674972927824955e+00
	1.413079319853834e+01
	6.010834390825806e+00
	1.413081026326537e+01
	1.350336073357124e+01
	4.748221169324345e+00
	4.045742623720702e-06
	1.435224324418370e+01
	4.459298960392767e+00
	4.748179954601855e+00
	1.350331965166921e+01
	4.459218412332570e+00
	4.070160814722780e+00
	3.909424955344727e+00
	4.067230976335603e+00
	4.459298960392767e+00
	1.492653104795271e+01
	1.492645858499948e+01
	1.494257304985376e+01
	1.060201405328844e+00
	1.435215890353386e+01
	-2.264935466740232e-04
12		1.712000000000000e-03
	4.989416098673013e+00
	1.500000000000000e+01
	1.060250254806924e+00
	4.965674829832079e-01
	1.435220820572733e+01
	4.925338206177270e-01
	1.475997507796302e+01
	1.494257304987369e+01
	1.492653154844643e+01
	1.475984942892912e+01
	5.998691908277373e-01
	5.998691908277372e-01
	5.564433169092098e+00
	6.010830313551343e+00
	5.996541638722036e-01
	4.459300384841154e+00
	4.616591155412151e+00
	1.247004470385280e-01
	4.934558507867814e-01
	6.296176350063883e-02
	7.555411620076660e-02
	4.067255248321958e+00
	3.909473909354985e+00
	4.070185026691738e+00
	4.459228013343240e+00
	1.350334365947246e+01
	4.748204004161080e+00
	5.339115545977757e+00
	5.674972929767321e+00
	1.413079319856743e+01
	6.010834392849079e+00
	1.413081026329446e+01
	1.350336073360283e+01
	4.748221171122233e+00
	4.045742632422617e-06
	1.435224324418459e+01
	4.459298960859071e+00
	4.748179956399746e+00
	1.350331965170080e+01
	4.459218412801802e+00
	4.070160815335593e+00
	3.909424955812804e+00
	4.067230976951315e+00
	4.459298960859071e+00
	1.492653104569824e+01
	1.492645858274277e+01
	1.494257304985871e+01
	1.060201405330546e+00
	1.435215890353475e+01
	-2.264935489146719e-04
13		2.112000000000001e-03
	4.989416098178902e+00
	1.500000000000000e+01
	1.060250254804826e+00
	4.965674829812104e-01
	1.435220820572602e+01
	4.925338206157300e-01
	1.475997507795944e+01
	1.494257304986676e+01
	1.492653155127372e+01
	1.475984942892554e+01
	5.998691907659381e-01
	5.998691907659380e-01
	5.564433167601289e+00
	6.010830311304380e+00
	5.996541638093521e-01
	4.459300384480130e+00
	4.616591154947111e+00
	1.247004469817420e-01
	4.934558507846680e-01
	6.296176346373325e-02
	7.555411615647990e-02
	4.067255247855765e+00
	3.909473908991343e+00
	4.070185026229604e+00
	4.459228012977353e+00
	1.350334365946774e+01
	4.748204002125596e+00
	5.339115543886903e+00
	5.674972927589171e+00
	1.413079319856339e+01
	6.010834390602115e+00
	1.413081026329041e+01
	1.350336073359811e+01
	4.748221169086750e+00
	4.045742623760601e-06
	1.435224324418328e+01
	4.459298960498047e+00
	4.748179954364262e+00
	1.350331965169608e+01
	4.459218412435922e+00
	4.070160814873462e+00
	3.909424955449163e+00
	4.067230976485121e+00
	4.459298960498047e+00
	1.492653104852554e+01
	1.492645858557287e+01
	1.494257304985178e+01
	1.060201405328449e+00
	1.435215890353344e+01
	-2.264935460971774e-04
14		2.512000000000001e-03
	4.989416098164080e+00
	1.500000000000000e+01
	1.060250254806955e+00
	4.965674829832377e-01
	1.435220820572843e+01
	4.925338206177566e-01
	1.475997507794404e+01
	1.494257304987547e+01
	1.492653154821910e+01
	1.475984942891014e+01
	5.998691907671663e-01
	5.998691907671662e-01
	5.564433168662319e+00
	6.010830313198680e+00
	5.996541638116906e-01
	4.459300384455473e+00
	4.616591154929133e+00
	1.247004469839318e-01
	4.934558507866878e-01
	6.296176346462383e-02
	7.555411615754860e-02
	4.067255247837232e+00
	3.909473908966414e+00
	4.070185026211042e+00
	4.459228012953083e+00
	1.350334365944908e+01
	4.748204003852854e+00
	5.339115545660043e+00
	5.674972929433697e+00
	1.413079319854641e+01
	6.010834392496417e+00
	1.413081026327344e+01
	1.350336073357945e+01
	4.748221170814009e+00
	4.045742630996458e-06
	1.435224324418569e+01
	4.459298960473391e+00
	4.748179956091519e+00
	1.350331965167742e+01
	4.459218412411651e+00
	4.070160814854899e+00
	3.909424955424234e+00
	4.067230976466586e+00
	4.459298960473391e+00
	1.492653104547090e+01
	1.492645858251522e+01
	1.494257304986049e+01
	1.060201405330577e+00
	1.435215890353585e+01
	-2.264935491444898e-04
15		2.912000000000001e-03
	4.989416098124721e+00
	1.500000000000000e+01
	1.060250254804967e+00
	4.965674829813440e-01
	1.435220820572450e+01
	4.925338206158641e-01
	1.475997507796637e+01
	1.494257304986955e+01
	1.492653155128865e+01
	1.475984942893247e+01
	5.998691907599084e-01
	5.998691907599083e-01
	5.564433167542100e+00
	6.010830311224947e+00
	5.996541638035346e-01
	4.459300384456314e+00
	4.616591154899456e+00
	1.247004469764486e-01
	4.934558507847952e-01
	6.296176346016187e-02
	7.555411615219425e-02
	4.067255247808156e+00
	3.909473908969069e+00
	4.070185026180459e+00
	4.459228012956476e+00
	1.350334365947664e+01
	4.748204002003546e+00
	5.339115543774411e+00
	5.674972927492570e+00
	1.413079319857106e+01
	6.010834390522683e+00
	1.413081026329809e+01
	1.350336073360700e+01
	4.748221168964699e+00
	4.045742625186869e-06
	1.435224324418176e+01
	4.459298960474231e+00
	4.748179954242213e+00
	1.350331965170497e+01
	4.459218412415047e+00
	4.070160814824314e+00
	3.909424955426889e+00
	4.067230976437512e+00
	4.459298960474231e+00
	1.492653104854047e+01
	1.492645858558781e+01
	1.494257304985457e+01
	1.060201405328590e+00
	1.435215890353192e+01
	-2.264935460828590e-04
16		3.312000000000001e-03
	4.989416098213570e+00
	1.500000000000000e+01
	1.060250254806959e+00
	4.965674829832418e-01
	1.435220820572849e+01
	4.925338206177608e-01
	1.475997507793735e+01
	1.494257304987180e+01
	1.492653154815320e+01
	1.475984942890345e+01
	5.998691907727630e-01
	5.998691907727629e-01
	5.564433168734434e+00
	6.010830313303698e+00
	5.996541638172334e-01
	4.459300384508117e+00
	4.616591154979972e+00
	1.247004469889542e-01
	4.934558507867095e-01
	6.296176346795450e-02
	7.555411616154541e-02
	4.067255247888838e+00
	3.909473909020445e+00
	4.070185026260162e+00
	4.459228013007889e+00
	1.350334365944361e+01
	4.748204003945292e+00
	5.339115545758166e+00
	5.674972929541459e+00
	1.413079319853900e+01
	6.010834392601434e+00
	1.413081026326603e+01
	1.350336073357397e+01
	4.748221170906446e+00
	4.045742631957278e-06
	1.435224324418575e+01
	4.459298960526034e+00
	4.748179956183957e+00
	1.350331965167194e+01
	4.459218412466456e+00
	4.070160814904017e+00
	3.909424955478265e+00
	4.067230976518194e+00
	4.459298960526034e+00
	1.492653104540500e+01
	1.492645858244925e+01
	1.494257304985681e+01
	1.060201405330582e+00
	1.435215890353590e+01
	-2.264935492129819e-04
17		3.712000000000001e-03
	4.989416098225105e+00
	1.500000000000000e+01
	1.060250254804938e+00
	4.965674829813173e-01
	1.435220820572662e+01
	4.925338206158364e-01
	1.475997507795890e+01
	1.494257304986809e+01
	1.492653155132419e+01
	1.475984942892500e+01
	5.998691907716476e-01
	5.998691907716475e-01
	5.564433167629407e+00
	6.010830311294905e+00
	5.996541638151308e-01
	4.459300384535917e+00
	4.616591154995485e+00
	1.247004469869415e-01
	4.934558507847930e-01
	6.296176346713528e-02
	7.555411616056235e-02
	4.067255247904817e+00
	3.909473909048253e+00
	4.070185026275418e+00
	4.459228013036379e+00
	1.350334365946968e+01
	4.748204002089536e+00
	5.339115543860673e+00
	5.674972927579233e+00
	1.413079319856278e+01
	6.010834390592640e+00
	1.413081026328981e+01
	1.350336073360004e+01
	4.748221169050688e+00
	4.045742625163559e-06
	1.435224324418388e+01
	4.459298960553834e+00
	4.748179954328203e+00
	1.350331965169801e+01
	4.459218412494948e+00
	4.070160814919273e+00
	3.909424955506072e+00
	4.067230976534173e+00
	4.459298960553834e+00
	1.492653104857601e+01
	1.492645858562338e+01
	1.494257304985310e+01
	1.060201405328561e+00
	1.435215890353403e+01
	-2.264935460436941e-04
18		4.112000000000001e-03
	4.989416098016695e+00
	1.500000000000000e+01
	1.060250254806892e+00
	4.965674829831785e-01
	1.435220820572847e+01
	4.925338206176971e-01
	1.475997507794777e+01
	1.494257304987027e+01
	1.492653154827069e+01
	1.475984942891387e+01
	5.998691907496274e-01
	5.998691907496273e-01
	5.564433168496848e+00
	6.010830313041055e+00
	5.996541637942950e-01
	4.459300384378071e+00
	4.616591154797590e+00
	1.247004469682145e-01
	4.934558507866040e-01
	6.296176345420776e-02
	7.555411614504931e-02
	4.067255247706204e+00
	3.909473908889765e+00
	4.070185026078694e+00
	4.459228012877183e+00
	1.350334365945401e+01
	4.748204003763105e+00
	5.339115545549663e+00
	5.674972929288837e+00
	1.413079319855054e+01
	6.010834392338790e+00
	1.413081026327757e+01
	1.350336073358438e+01
	4.748221170724260e+00
	4.045742627898892e-06
	1.435224324418573e+01
	4.459298960395988e+00
	4.748179956001770e+00
	1.350331965168235e+01
	4.459218412335755e+00
	4.070160814722551e+00
	3.909424955347585e+00
	4.067230976335559e+00
	4.459298960395988e+00
	1.492653104552249e+01
	1.492645858256686e+01
	1.494257304985529e+01
	1.060201405330515e+00
	1.435215890353588e+01
	-2.264935490943060e-04
19		4.512000000000001e-03
	4.989416098601133e+00
	1.500000000000000e+01
	1.060250254805106e+00
	4.965674829814765e-01
	1.435220820572668e+01
	4.925338206159959e-01
	1.475997507796139e+01
	1.494257304987603e+01
	1.492653155091607e+01
	1.475984942892748e+01
	5.998691908166449e-01
	5.998691908166448e-01
	5.564433168149963e+00
	6.010830311923337e+00
	5.996541638601565e-01
	4.459300384805140e+00
	4.616591155348590e+00
	1.247004470275725e-01
	4.934558507850376e-01
	6.296176349390152e-02
	7.555411619268183e-02
	4.067255248257015e+00
	3.909473909317374e+00
	4.070185026629173e+00
	4.459228013304547e+00
	1.350334365947223e+01
	4.748204002709170e+00
	5.339115544478893e+00
	5.674972928195271e+00
	1.413079319856554e+01
	6.010834391221074e+00
	1.413081026329256e+01
	1.350336073360260e+01
	4.748221169670322e+00
	4.045742624913650e-06
	1.435224324418394e+01
	4.459298960823057e+00
	4.748179954947837e+00
	1.350331965170057e+01
	4.459218412763111e+00
	4.070160815273030e+00
	3.909424955775193e+00
	4.067230976886371e+00
	4.459298960823057e+00
	1.492653104816789e+01
	1.492645858521486e+01
	1.494257304986104e+01
	1.060201405328728e+00
	1.435215890353410e+01
	-2.264935464503532e-04
20		4.912000000000001e-03
	4.989416098359592e+00
	1.500000000000000e+01
	1.060250254806739e+00
	4.965674829830325e-01
	1.435220820572694e+01
	4.925338206175517e-01
	1.475997507794772e+01
	1.494257304987618e+01
	1.492653154867287e+01
	1.475984942891382e+01
	5.998691907899897e-01
	5.998691907899896e-01
	5.564433168697845e+00
	6.010830313131072e+00
	5.996541638343442e-01
	4.459300384613632e+00
	4.616591155117958e+00
	1.247004470043920e-01
	4.934558507865339e-01
	6.296176347818265e-02
	7.555411617381919e-02
	4.067255248027440e+00
	3.909473909126399e+00
	4.070185026398951e+00
	4.459228013113746e+00
	1.350334365945442e+01
	4.748204003825894e+00
	5.339115545620086e+00
	5.674972929372119e+00
	1.413079319855049e+01
	6.010834392428809e+00
	1.413081026327752e+01
	1.350336073358479e+01
	4.748221170787049e+00
	4.045742629134124e-06
	1.435224324418420e+01
	4.459298960631549e+00
	4.748179956064559e+00
	1.350331965168276e+01
	4.459218412572312e+00
	4.070160815042807e+00
	3.909424955584219e+00
	4.067230976656796e+00
	4.459298960631549e+00
	1.492653104592467e+01
	1.492645858296943e+01
	1.494257304986120e+01
	1.060201405330362e+00
	1.435215890353436e+01
	-2.264935486942076e-04
21		5.312000000000002e-03
	4.989416098594137e+00
	1.500000000000000e+01
	1.060250254805122e+00
	4.965674829814917e-01
	1.435220820572698e+01
	4.925338206160112e-01
	1.475997507796296e+01
	1.494257304987202e+01
	1.492653155067368e+01
	1.475984942892905e+01
	5.998691908161580e-01
	5.998691908161579e-01
	5.564433168227225e+00
	6.010830312061717e+00
	5.996541638598119e-01
	4.459300384788623e+00
	4.616591155339360e+00
	1.247004470272374e-01
	4.934558507850476e-01
	6.296176349362179e-02
	7.555411619234614e-02
	4.067255248247141e+00
	3.909473909300637e+00
	4.070185026620026e+00
	4.459228013287611e+00
	1.350334365947368e+01
	4.748204002828848e+00
	5.339115544603436e+00
	5.674972928327971e+00
	1.413079319856728e+01
	6.010834391359453e+00
	1.413081026329430e+01
	1.350336073360405e+01
	4.748221169790000e+00
	4.045742625640391e-06
	1.435224324418424e+01
	4.459298960806541e+00
	4.748179955067513e+00
	1.350331965170202e+01
	4.459218412746174e+00
	4.070160815263882e+00
	3.909424955758456e+00
	4.067230976876497e+00
	4.459298960806541e+00
	1.492653104792550e+01
	1.492645858497223e+01
	1.494257304985704e+01
	1.060201405328744e+00
	1.435215890353440e+01
	-2.264935466911467e-04
22		5.712000000000002e-03
	4.989416097470039e+00
	1.500000000000000e+01
	1.060250254806517e+00
	4.965674829828221e-01
	1.435220820572728e+01
	4.925338206173407e-01
	1.475997507794797e+01
	1.494257304986825e+01
	1.492653154938164e+01
	1.475984942891407e+01
	5.998691906837005e-01
	5.998691906837004e-01
	5.564433167558844e+00
	6.010830311795457e+00
	5.996541637280718e-01
	4.459300383941515e+00
	4.616591154274428e+00
	1.247004469084732e-01
	4.934558507861090e-01
	6.296176341495890e-02
	7.555411609795069e-02
	4.067255247183316e+00
	3.909473908453310e+00
	4.070185025555804e+00
	4.459228012440366e+00
	1.350334365945408e+01
	4.748204002563495e+00
	5.339115544340961e+00
	5.674972928064527e+00
	1.413079319855076e+01
	6.010834391093193e+00
	1.413081026327779e+01
	1.350336073358445e+01
	4.748221169524649e+00
	4.045742626489104e-06
	1.435224324418454e+01
	4.459298959959432e+00
	4.748179954802160e+00
	1.350331965168241e+01
	4.459218411898943e+00
	4.070160814199660e+00
	3.909424954911131e+00
	4.067230975812672e+00
	4.459298959959432e+00
	1.492653104663345e+01
	1.492645858367891e+01
	1.494257304985327e+01
	1.060201405330140e+00
	1.435215890353469e+01
	-2.264935479862219e-04