Title: kicad schematic
Date: Sat Nov 29 21:52:21  2025
Plotname: Transient Analysis
Flags: real
No. Variables: 41
No. Points: 1008    
Variables:
	0	time	time
	1	v(net-_m29-pad1_)	voltage
	2	v(net-_m15-pad1_)	voltage
	3	v(/gnd)	voltage
	4	v(/vcc)	voltage
	5	v(net-_m24-pad3_)	voltage
	6	v(net-_m24-pad2_)	voltage
	7	v(net-_m25-pad1_)	voltage
	8	v(net-_m16-pad4_)	voltage
	9	v(net-_m25-pad3_)	voltage
	10	v(net-_m27-pad2_)	voltage
	11	v(/output)	voltage
	12	v(net-_m18-pad4_)	voltage
	13	v(net-_m1-pad4_)	voltage
	14	v(net-_m17-pad2_)	voltage
	15	v(net-_m14-pad2_)	voltage
	16	v(net-_m19-pad1_)	voltage
	17	v(net-_m19-pad2_)	voltage
	18	v(net-_m18-pad1_)	voltage
	19	v(net-_m15-pad2_)	voltage
	20	v(net-_m20-pad1_)	voltage
	21	v(net-_m11-pad3_)	voltage
	22	v(/comp2)	voltage
	23	v(net-_m10-pad3_)	voltage
	24	v(net-_m7-pad3_)	voltage
	25	v(/input2)	voltage
	26	v(net-_m9-pad3_)	voltage
	27	v(net-_m12-pad2_)	voltage
	28	v(net-_m1-pad3_)	voltage
	29	v(/input1)	voltage
	30	v(net-_m4-pad3_)	voltage
	31	v(net-_m14-pad3_)	voltage
	32	v(net-_m13-pad2_)	voltage
	33	v(net-_m11-pad1_)	voltage
	34	v(net-_m8-pad3_)	voltage
	35	v(/comp1)	voltage
	36	v(net-_m12-pad1_)	voltage
	37	v(net-_m2-pad3_)	voltage
	38	v(net-_m1-pad1_)	voltage
	39	v(net-_m2-pad1_)	voltage
	40	i(v1)	current
Values:
0		0.000000000000000e+00
	1.403866236565563e+01
	1.415990970205710e+01
	1.025851659408722e+01
	1.500000000000000e+01
	1.025851659501648e+01
	1.017971962475131e+01
	1.480236579797988e+01
	1.480236582192434e+01
	1.406115692731895e+01
	1.403866236542256e+01
	1.403866236201122e+01
	1.017971982854573e+01
	3.865488803775963e+00
	9.692751878864422e+00
	9.601452277352664e+00
	1.017971962475131e+01
	9.687056537245212e+00
	1.415506804673423e+01
	1.498498554928553e+01
	1.482161551184419e+01
	1.499999975889654e+01
	1.415506804673423e+01
	4.133114413460731e+00
	1.220139563806489e+01
	4.222821260733483e+00
	4.133114432664935e+00
	4.222880612044058e+00
	4.222880612044058e+00
	4.222820050888224e+00
	1.098925600541941e+01
	1.421203253449119e+01
	1.355384117851878e+01
	1.499999985024092e+01
	1.499999924968832e+01
	1.490433434938218e+01
	1.098925675554668e+01
	1.499999943902083e+01
	1.221322523470381e+01
	1.491520084576745e+01
	-7.016519037807920e-04
1		1.000000000000001e-09
	1.403866234532373e+01
	1.415990970195933e+01
	1.025851657333022e+01
	1.500000000000000e+01
	1.025851657426690e+01
	1.017971960413094e+01
	1.480236577761530e+01
	1.480236580621614e+01
	1.406115691896549e+01
	1.403866234478393e+01
	1.403866234137263e+01
	1.017971984460066e+01
	3.865488825301715e+00
	9.692751898561751e+00
	9.601452240668456e+00
	1.017971964421470e+01
	9.687056537984260e+00
	1.415506805674186e+01
	1.498498555916782e+01
	1.482161551217022e+01
	1.499999977460808e+01
	1.415506805674186e+01
	4.133114434988288e+00
	1.220139566220476e+01
	4.222821282266072e+00
	4.133114454193000e+00
	4.222880622526872e+00
	4.222880623895278e+00
	4.222820072404359e+00
	1.098925602840376e+01
	1.421203244366051e+01
	1.355384120522076e+01
	1.499999984925683e+01
	1.499999924972879e+01
	1.490433434945213e+01
	1.098925678886178e+01
	1.499999943905513e+01
	1.221322525883145e+01
	1.491520084582300e+01
	-7.016521397190667e-04
2		2.000000000000001e-09
	1.403866233028215e+01
	1.415990970183291e+01
	1.025851655828010e+01
	1.500000000000000e+01
	1.025851655921846e+01
	1.017971958923827e+01
	1.480236576299070e+01
	1.480236579349354e+01
	1.406115691217808e+01
	1.403866232982284e+01
	1.403866232641154e+01
	1.017971984457813e+01
	3.865488829681945e+00
	9.692751902454926e+00
	9.601452215794435e+00
	1.017971964799036e+01
	9.687056535841517e+00
	1.415506805673718e+01
	1.498498555915265e+01
	1.482161550615245e+01
	1.499999977454353e+01
	1.415506805673718e+01
	4.133114439370287e+00
	1.220139566795565e+01
	4.222821286652112e+00
	4.133114458574999e+00
	4.222880621320086e+00
	4.222880622182657e+00
	4.222820076780035e+00
	1.098925603486613e+01
	1.421203239471341e+01
	1.355384121231403e+01
	1.499999984967559e+01
	1.499999924971813e+01
	1.490433434946409e+01
	1.098925679972649e+01
	1.499999943905247e+01
	1.221322526457634e+01
	1.491520084583505e+01
	-7.016519269951726e-04
3		4.000000000000003e-09
	1.403866230333258e+01
	1.415990970154344e+01
	1.025851653121725e+01
	1.500000000000000e+01
	1.025851653215752e+01
	1.017971956252280e+01
	1.480236573687150e+01
	1.480236576993992e+01
	1.406115689958438e+01
	1.403866230292142e+01
	1.403866229951012e+01
	1.017971983116832e+01
	3.865488825343406e+00
	9.692751896800008e+00
	9.601452172504541e+00
	1.017971964212250e+01
	9.687056528378118e+00
	1.415506804839479e+01
	1.498498555089516e+01
	1.482161548853901e+01
	1.499999976129889e+01
	1.415506804839479e+01
	4.133114435035209e+00
	1.220139566519054e+01
	4.222821282324494e+00
	4.133114454239900e+00
	4.222880611702925e+00
	4.222880611709496e+00
	4.222820072441972e+00
	1.098925603542480e+01
	1.421203232521542e+01
	1.355384121108529e+01
	1.499999985099773e+01
	1.499999924967862e+01
	1.490433434943999e+01
	1.098925680544429e+01
	1.499999943902738e+01
	1.221322526180468e+01
	1.491520084582309e+01
	-7.016517401483013e-04
4		8.000000000000005e-09
	1.403866225806951e+01
	1.415990970087118e+01
	1.025851648569440e+01
	1.500000000000000e+01
	1.025851648663458e+01
	1.017971951775811e+01
	1.480236569355066e+01
	1.480236572823882e+01
	1.406115687721036e+01
	1.403866225767639e+01
	1.403866225426490e+01
	1.017971976884751e+01
	3.865488785420694e+00
	9.692751854041978e+00
	9.601452106327358e+00
	1.017971959876016e+01
	9.687056502632794e+00
	1.415506800958668e+01
	1.498498551252762e+01
	1.482161543870644e+01
	1.499999969997303e+01
	1.415506800958668e+01
	4.133114395121000e+00
	1.220139562516843e+01
	4.222821242420769e+00
	4.133114414325488e+00
	4.222880574282135e+00
	4.222880574112223e+00
	4.222820032542184e+00
	1.098925600680372e+01
	1.421203226391800e+01
	1.355384117093742e+01
	1.499999985289000e+01
	1.499999924961776e+01
	1.490433434926606e+01
	1.098925677697569e+01
	1.499999943898020e+01
	1.221322522178666e+01
	1.491520084570509e+01
	-7.016516805961326e-04
5		1.600000000000001e-08
	1.403866216910776e+01
	1.415990969951984e+01
	1.025851639615927e+01
	1.500000000000000e+01
	1.025851639710029e+01
	1.017971942978676e+01
	1.480236560955548e+01
	1.480236564863260e+01
	1.406115683447685e+01
	1.403866216870253e+01
	1.403866216529128e+01
	1.017971963932618e+01
	3.865488708797068e+00
	9.692751772623676e+00
	9.601451986948478e+00
	1.017971951593905e+01
	9.687056438232776e+00
	1.415506792893357e+01
	1.498498543279133e+01
	1.482161533861486e+01
	1.499999957254661e+01
	1.415506792893357e+01
	4.133114318510594e+00
	1.220139554554856e+01
	4.222821165826743e+00
	4.133114337715086e+00
	4.222880498573197e+00
	4.222880498701057e+00
	4.222819955950196e+00
	1.098925595064524e+01
	1.421203216938204e+01
	1.355384108831929e+01
	1.499999985262324e+01
	1.499999924962189e+01
	1.490433434889869e+01
	1.098925671690159e+01
	1.499999943898584e+01
	1.221322514218062e+01
	1.491520084545375e+01
	-7.016516983764653e-04
6		3.200000000000002e-08
	1.403866199844857e+01
	1.415990969705836e+01
	1.025851622437572e+01
	1.500000000000000e+01
	1.025851622531973e+01
	1.017971926163982e+01
	1.480236545413525e+01
	1.480236550287614e+01
	1.406115675622502e+01
	1.403866199806875e+01
	1.403866199465746e+01
	1.017971941734367e+01
	3.865488580914012e+00
	9.692751636439837e+00
	9.601451776216891e+00
	1.017971937617568e+01
	9.687056300108074e+00
	1.415506779071414e+01
	1.498498529613269e+01
	1.482161516342126e+01
	1.499999935412903e+01
	1.415506779071414e+01
	4.133114190622819e+00
	1.220139540481411e+01
	4.222821037964625e+00
	4.133114209827190e+00
	4.222880354712748e+00
	4.222880354866965e+00
	4.222819828061007e+00
	1.098925584805368e+01
	1.421203202393097e+01
	1.355384093484257e+01
	1.499999985215825e+01
	1.499999924963676e+01
	1.490433434824998e+01
	1.098925660440721e+01
	1.499999943899105e+01
	1.221322500145682e+01
	1.491520084500404e+01
	-7.016516798921402e-04
7		6.400000000000004e-08
	1.403866169960096e+01
	1.415990969297500e+01
	1.025851592331165e+01
	1.500000000000000e+01
	1.025851592426245e+01
	1.017971897055374e+01
	1.480236519888702e+01
	1.480236525570647e+01
	1.406115662352932e+01
	1.403866169923518e+01
	1.403866169582386e+01
	1.017971907476257e+01
	3.865488387301290e+00
	9.692751416369104e+00
	9.601451430807636e+00
	1.017971914616995e+01
	9.687056051207620e+00
	1.415506757759398e+01
	1.498498508522949e+01
	1.482161488528653e+01
	1.499999901699641e+01
	1.415506757759398e+01
	4.133113996948453e+00
	1.220139517191308e+01
	4.222820844282607e+00
	4.133114016152409e+00
	4.222880096549518e+00
	4.222880096962600e+00
	4.222819634269940e+00
	1.098925565303467e+01
	1.421203183998308e+01
	1.355384066313015e+01
	1.499999985160672e+01
	1.499999924964509e+01
	1.490433434719307e+01
	1.098925639634853e+01
	1.499999943899141e+01
	1.221322476858706e+01
	1.491520084425466e+01
	-7.016517059791130e-04
8		1.280000000000001e-07
	1.403866124303379e+01
	1.415990968692423e+01
	1.025851546307428e+01
	1.500000000000000e+01
	1.025851546403410e+01
	1.017971853891848e+01
	1.480236483355588e+01
	1.480236488518382e+01
	1.406115642462024e+01
	1.403866124271989e+01
	1.403866123930857e+01
	1.017971858532403e+01
	3.865488168514007e+00
	9.692751095102945e+00
	9.601450932333375e+00
	1.017971879673710e+01
	9.687055685164916e+00
	1.415506727330648e+01
	1.498498478391587e+01
	1.482161448800107e+01
	1.499999853534524e+01
	1.415506727330648e+01
	4.133113777948634e+00
	1.220139486587855e+01
	4.222820625183282e+00
	4.133113797152439e+00
	4.222879699140331e+00
	4.222879699515155e+00
	4.222819414867763e+00
	1.098925533780439e+01
	1.421203164338696e+01
	1.355384027135107e+01
	1.499999985118452e+01
	1.499999924965977e+01
	1.490433434567751e+01
	1.098925607351272e+01
	1.499999943900959e+01
	1.221322446271298e+01
	1.491520084317861e+01
	-7.016516943508522e-04
9		2.280000000000002e-07
	1.403866077776420e+01
	1.415990968092717e+01
	1.025851499379472e+01
	1.500000000000000e+01
	1.025851499475585e+01
	1.017971812310435e+01
	1.480236447985760e+01
	1.480236452358428e+01
	1.406115623051601e+01
	1.403866077747268e+01
	1.403866077406144e+01
	1.017971811088431e+01
	3.865488045281544e+00
	9.692750746520966e+00
	9.601450471565364e+00
	1.017971839474394e+01
	9.687055320008351e+00
	1.415506697875092e+01
	1.498498449184163e+01
	1.482161412030652e+01
	1.499999806858374e+01
	1.415506697875092e+01
	4.133113654332795e+00
	1.220139463501013e+01
	4.222820501424374e+00
	4.133113673536672e+00
	4.222879296368673e+00
	4.222879296782852e+00
	4.222819290635127e+00
	1.098925501228755e+01
	1.421203153720704e+01
	1.355383993488638e+01
	1.499999985069842e+01
	1.499999924967472e+01
	1.490433434427786e+01
	1.098925574830766e+01
	1.499999943902078e+01
	1.221322423205273e+01
	1.491520084220518e+01
	-7.016517255050737e-04
10		3.280000000000002e-07
	1.403866049601742e+01
	1.415990967745291e+01
	1.025851470944130e+01
	1.500000000000000e+01
	1.025851471039364e+01
	1.017971788586165e+01
	1.480236428087313e+01
	1.480236432026741e+01
	1.406115612156208e+01
	1.403866049575846e+01
	1.403866049234723e+01
	1.017971784906787e+01
	3.865488014441367e+00
	9.692750486738937e+00
	9.601450232921623e+00
	1.017971808435705e+01
	9.687055071283472e+00
	1.415506681701614e+01
	1.498498433067028e+01
	1.482161393768743e+01
	1.499999781116000e+01
	1.415506681701614e+01
	4.133113623196632e+00
	1.220139454567268e+01
	4.222820470198976e+00
	4.133113642400684e+00
	4.222879053710338e+00
	4.222879053894908e+00
	4.222819259050366e+00
	1.098925481326321e+01
	1.421203153161533e+01
	1.355383978824332e+01
	1.499999985050228e+01
	1.499999924967971e+01
	1.490433434356924e+01
	1.098925555377503e+01
	1.499999943901513e+01
	1.221322414288023e+01
	1.491520084173096e+01
	-7.016517140797287e-04
11		4.280000000000003e-07
	1.403866032019018e+01
	1.415990967533791e+01
	1.025851453183448e+01
	1.500000000000000e+01
	1.025851453277501e+01
	1.017971773789452e+01
	1.480236416701594e+01
	1.480236420192179e+01
	1.406115605823395e+01
	1.403866031993038e+01
	1.403866031651914e+01
	1.017971769648251e+01
	3.865487997882018e+00
	9.692750275875913e+00
	9.601450102211952e+00
	1.017971783521927e+01
	9.687054877341190e+00
	1.415506672367502e+01
	1.498498423674704e+01
	1.482161385206643e+01
	1.499999766129704e+01
	1.415506672367502e+01
	4.133113606423867e+00
	1.220139450901673e+01
	4.222820453418506e+00
	4.133113625627978e+00
	4.222878901594951e+00
	4.222878901793075e+00
	4.222819242040348e+00
	1.098925468690468e+01
	1.421203155090099e+01
	1.355383973192842e+01
	1.499999985036166e+01
	1.499999924968699e+01
	1.490433434320490e+01
	1.098925543115871e+01
	1.499999943902329e+01
	1.221322410633623e+01
	1.491520084150043e+01
	-7.016517390011495e-04
12		5.280000000000004e-07
	1.403866020965001e+01
	1.415990967401105e+01
	1.025851442012501e+01
	1.500000000000000e+01
	1.025851442105488e+01
	1.017971763652982e+01
	1.480236410099533e+01
	1.480236413294982e+01
	1.406115602119612e+01
	1.403866020941061e+01
	1.403866020599938e+01
	1.017971760486975e+01
	3.865487981119007e+00
	9.692750105526336e+00
	9.601450026455339e+00
	1.017971764106034e+01
	9.687054721751162e+00
	1.415506666860424e+01
	1.498498418036169e+01
	1.482161382129651e+01
	1.499999757147968e+01
	1.415506666860424e+01
	4.133113589520699e+00
	1.220139449480676e+01
	4.222820436551261e+00
	4.133113608724956e+00
	4.222878805534885e+00
	4.222878805561120e+00
	4.222819225038444e+00
	1.098925460648182e+01
	1.421203157475629e+01
	1.355383971999368e+01
	1.499999985031575e+01
	1.499999924968387e+01
	1.490433434302216e+01
	1.098925535350295e+01
	1.499999943902036e+01
	1.221322409212316e+01
	1.491520084139716e+01
	-7.016517225938851e-04
13		6.280000000000005e-07
	1.403866014023351e+01
	1.415990967314914e+01
	1.025851434989659e+01
	1.500000000000000e+01
	1.025851435081823e+01
	1.017971756039991e+01
	1.480236406372076e+01
	1.480236409336867e+01
	1.406115599979110e+01
	1.403866013998605e+01
	1.403866013657481e+01
	1.017971754709955e+01
	3.865487963125728e+00
	9.692749969404137e+00
	9.601449979797877e+00
	1.017971749401604e+01
	9.687054597234320e+00
	1.415506663442284e+01
	1.498498414480988e+01
	1.482161382192358e+01
	1.499999751499501e+01
	1.415506663442284e+01
	4.133113571420580e+00
	1.220139449104756e+01
	4.222820418528521e+00
	4.133113590624783e+00
	4.222878745862720e+00
	4.222878745954072e+00
	4.222819206945113e+00
	1.098925455702819e+01
	1.421203159842728e+01
	1.355383972988993e+01
	1.499999985025837e+01
	1.499999924969132e+01
	1.490433434293507e+01
	1.098925530582603e+01
	1.499999943902289e+01
	1.221322408834524e+01
	1.491520084136156e+01
	-7.016517435524238e-04
14		7.280000000000006e-07
	1.403866009659953e+01
	1.415990967257296e+01
	1.025851430572921e+01
	1.500000000000000e+01
	1.025851430664550e+01
	1.017971749868491e+01
	1.480236404354961e+01
	1.480236407179503e+01
	1.406115598811913e+01
	1.403866009636787e+01
	1.403866009295664e+01
	1.017971750990418e+01
	3.865487945616658e+00
	9.692749862128348e+00
	9.601449949489361e+00
	1.017971738575801e+01
	9.687054498267230e+00
	1.415506661286220e+01
	1.498498412192484e+01
	1.482161384187278e+01
	1.499999747877560e+01
	1.415506661286220e+01
	4.133113553806344e+00
	1.220139449309960e+01
	4.222820401034228e+00
	4.133113573010607e+00
	4.222878709923966e+00
	4.222878709885085e+00
	4.222819189419441e+00
	1.098925452883377e+01
	1.421203162098420e+01
	1.355383975084038e+01
	1.499999985025250e+01
	1.499999924969147e+01
	1.490433434290377e+01
	1.098925527878726e+01
	1.499999943902958e+01
	1.221322409036460e+01
	1.491520084136260e+01
	-7.016517247882444e-04
15		8.280000000000007e-07
	1.403866006899521e+01
	1.415990967217250e+01
	1.025851427772611e+01
	1.500000000000000e+01
	1.025851427863945e+01
	1.017971744594892e+01
	1.480236403383322e+01
	1.480236406111489e+01
	1.406115598234705e+01
	1.403866006875256e+01
	1.403866006534131e+01
	1.017971748442462e+01
	3.865487929170615e+00
	9.692749777446174e+00
	9.601449928363019e+00
	1.017971730710035e+01
	9.687054419717516e+00
	1.415506659882694e+01
	1.498498410625517e+01
	1.482161387304489e+01
	1.499999745409817e+01
	1.415506659882694e+01
	4.133113537292651e+00
	1.220139449802198e+01
	4.222820384627956e+00
	4.133113556496961e+00
	4.222878689251091e+00
	4.222878689301791e+00
	4.222819173006322e+00
	1.098925451462216e+01
	1.421203164235651e+01
	1.355383977651893e+01
	1.499999985021488e+01
	1.499999924969358e+01
	1.490433434290197e+01
	1.098925526524395e+01
	1.499999943903357e+01
	1.221322409532348e+01
	1.491520084138259e+01
	-7.016517439658778e-04
16		9.280000000000008e-07
	1.403866005132212e+01
	1.415990967188308e+01
	1.025851425978020e+01
	1.500000000000000e+01
	1.025851426069234e+01
	1.017971739971904e+01
	1.480236403046780e+01
	1.480236405717636e+01
	1.406115598013010e+01
	1.403866005109344e+01
	1.403866004768220e+01
	1.017971746652810e+01
	3.865487914558029e+00
	9.692749710903296e+00
	9.601449912869136e+00
	1.017971725103675e+01
	9.687054357389824e+00
	1.415506658964945e+01
	1.498498409525462e+01
	1.482161391143350e+01
	1.499999743689110e+01
	1.415506658964945e+01
	4.133113522649318e+00
	1.220139450489299e+01
	4.222820370068091e+00
	4.133113541853684e+00
	4.222878678206420e+00
	4.222878678145965e+00
	4.222819158452142e+00
	1.098925450959851e+01
	1.421203166252007e+01
	1.355383980412176e+01
	1.499999985022345e+01
	1.499999924969067e+01
	1.490433434291536e+01
	1.098925526059056e+01
	1.499999943902970e+01
	1.221322410221551e+01
	1.491520084141245e+01
	-7.016517243633776e-04
17		1.028000000000001e-06
	1.403866003965272e+01
	1.415990967165937e+01
	1.025851424787189e+01
	1.500000000000000e+01
	1.025851424878439e+01
	1.017971735865631e+01
	1.480236403092284e+01
	1.480236405728474e+01
	1.406115598010516e+01
	1.403866003941187e+01
	1.403866003600062e+01
	1.017971745291196e+01
	3.865487901527820e+00
	9.692749657980960e+00
	9.601449900541493e+00
	1.017971721114328e+01
	9.687054307618078e+00
	1.415506658296977e+01
	1.498498408688945e+01
	1.482161395394763e+01
	1.499999742390068e+01
	1.415506658296977e+01
	4.133113509576478e+00
	1.220139451250819e+01
	4.222820357095714e+00
	4.133113528780754e+00
	4.222878673050081e+00
	4.222878673087902e+00
	4.222819145493110e+00
	1.098925451003306e+01
	1.421203168139743e+01
	1.355383983150644e+01
	1.499999985020441e+01
	1.499999924968912e+01
	1.490433434293572e+01
	1.098925526120233e+01
	1.499999943902694e+01
	1.221322410979649e+01
	1.491520084144461e+01
	-7.016517428462109e-04
18		1.128000000000001e-06
	1.403866003165617e+01
	1.415990967147899e+01
	1.025851423970002e+01
	1.500000000000000e+01
	1.025851424061318e+01
	1.017971732226870e+01
	1.480236403372951e+01
	1.480236405986470e+01
	1.406115598148564e+01
	1.403866003142858e+01
	1.403866002801735e+01
	1.017971744226725e+01
	3.865487890266578e+00
	9.692749615911900e+00
	9.601449890436578e+00
	1.017971718321681e+01
	9.687054267665326e+00
	1.415506657830052e+01
	1.498498408035310e+01
	1.482161399900821e+01
	1.499999741383395e+01
	1.415506657830052e+01
	4.133113498245656e+00
	1.220139452054040e+01
	4.222820345892347e+00
	4.133113517449946e+00
	4.222878671353362e+00
	4.222878671288729e+00
	4.222819134306087e+00
	1.098925451379786e+01
	1.421203169909844e+01
	1.355383985806438e+01
	1.499999985021808e+01
	1.499999924969044e+01
	1.490433434296067e+01
	1.098925526501077e+01
	1.499999943903186e+01
	1.221322411785989e+01
	1.491520084147965e+01
	-7.016517230501451e-04
19		1.228000000000001e-06
	1.403866002575733e+01
	1.415990967132855e+01
	1.025851423362029e+01
	1.500000000000000e+01
	1.025851423453512e+01
	1.017971729003322e+01
	1.480236403787962e+01
	1.480236406393239e+01
	1.406115598376639e+01
	1.403866002551711e+01
	1.403866002210586e+01
	1.017971743326756e+01
	3.865487880346451e+00
	9.692749581842740e+00
	9.601449881473457e+00
	1.017971716348388e+01
	9.687054235242034e+00
	1.415506657456399e+01
	1.498498407482800e+01
	1.482161404567008e+01
	1.499999740538795e+01
	1.415506657456399e+01
	4.133113488263714e+00
	1.220139452844860e+01
	4.222820336028038e+00
	4.133113507468012e+00
	4.222878671599984e+00
	4.222878671635343e+00
	4.222819124459469e+00
	1.098925451915903e+01
	1.421203171541614e+01
	1.355383988299074e+01
	1.499999985019444e+01
	1.499999924969102e+01
	1.490433434298701e+01
	1.098925527036463e+01
	1.499999943903098e+01
	1.221322412575799e+01
	1.491520084151308e+01
	-7.016517412939301e-04
20		1.328000000000001e-06
	1.403866002114339e+01
	1.415990967120155e+01
	1.025851422886269e+01
	1.500000000000000e+01
	1.025851422977895e+01
	1.017971726177960e+01
	1.480236404294033e+01
	1.480236406890454e+01
	1.406115598648289e+01
	1.403866002091620e+01
	1.403866001750496e+01
	1.017971742551307e+01
	3.865487871789359e+00
	9.692749554234611e+00
	9.601449873571299e+00
	1.017971714975575e+01
	9.687054208703524e+00
	1.415506657149388e+01
	1.498498407007135e+01
	1.482161409331399e+01
	1.499999739817019e+01
	1.415506657149388e+01
	4.133113479642748e+00
	1.220139453619892e+01
	4.222820327523328e+00
	4.133113498847033e+00
	4.222878672782067e+00
	4.222878672719371e+00
	4.222819115971467e+00
	1.098925452531218e+01
	1.421203173065747e+01
	1.355383990632480e+01
	1.499999985021015e+01
	1.499999924968332e+01
	1.490433434301253e+01
	1.098925527644480e+01
	1.499999943902843e+01
	1.221322413358299e+01
	1.491520084154413e+01
	-7.016517215351972e-04
21		1.428000000000001e-06
	1.403866001713317e+01
	1.415990967108818e+01
	1.025851422469000e+01
	1.500000000000000e+01
	1.025851422560821e+01
	1.017971723701460e+01
	1.480236404839212e+01
	1.480236407436461e+01
	1.406115598927762e+01
	1.403866001689313e+01
	1.403866001348188e+01
	1.017971741844823e+01
	3.865487864220992e+00
	9.692749531332437e+00
	9.601449866076180e+00
	1.017971713994882e+01
	9.687054186678674e+00
	1.415506656893307e+01
	1.498498406573961e+01
	1.482161414143665e+01
	1.499999739163086e+01
	1.415506656893307e+01
	4.133113471963606e+00
	1.220139454347726e+01
	4.222820320003239e+00
	4.133113491167770e+00
	4.222878674366151e+00
	4.222878674402780e+00
	4.222819108467520e+00
	1.098925453151572e+01
	1.421203174449088e+01
	1.355383992775660e+01
	1.499999985019687e+01
	1.499999924968972e+01
	1.490433434303507e+01
	1.098925528258908e+01
	1.499999943902871e+01
	1.221322414098793e+01
	1.491520084157248e+01
	-7.016517397294211e-04
22		1.528000000000001e-06
	1.403866001352946e+01
	1.415990967098590e+01
	1.025851422095538e+01
	1.500000000000000e+01
	1.025851422187520e+01
	1.017971721558940e+01
	1.480236405422934e+01
	1.480236408017268e+01
	1.406115599222830e+01
	1.403866001330238e+01
	1.403866000989115e+01
	1.017971741194611e+01
	3.865487857623332e+00
	9.692749512324655e+00
	9.601449859227221e+00
	1.017971713302492e+01
	9.687054168215992e+00
	1.415506656700327e+01
	1.498498406175312e+01
	1.482161419004128e+01
	1.499999738564398e+01
	1.415506656700327e+01
	4.133113465243605e+00
	1.220139455047641e+01
	4.222820313449770e+00
	4.133113484447857e+00
	4.222878675925043e+00
	4.222878675865498e+00
	4.222819101927747e+00
	1.098925453752346e+01
	1.421203175741102e+01
	1.355383994749010e+01
	1.499999985020450e+01
	1.499999924969009e+01
	1.490433434305576e+01
	1.098925528849167e+01
	1.499999943902620e+01
	1.221322414791238e+01
	1.491520084159870e+01
	-7.016517200829925e-04
23		1.628000000000001e-06
	1.403866000999380e+01
	1.415990967088945e+01
	1.025851421726233e+01
	1.500000000000000e+01
	1.025851421818362e+01
	1.017971719696231e+01
	1.480236406015206e+01
	1.480236408614344e+01
	1.406115599542871e+01
	1.403866000975378e+01
	1.403866000634253e+01
	1.017971740578909e+01
	3.865487851733916e+00
	9.692749496134979e+00
	9.601449852490180e+00
	1.017971712787153e+01
	9.687054152500744e+00
	1.415506656536555e+01
	1.498498405797951e+01
	1.482161423896543e+01
	1.499999737999824e+01
	1.415506656536555e+01
	4.133113459253171e+00
	1.220139455692662e+01
	4.222820307600522e+00
	4.133113478457396e+00
	4.222878677351509e+00
	4.222878677389807e+00
	4.222819096091043e+00
	1.098925454305570e+01
	1.421203176895043e+01
	1.355383996543045e+01
	1.499999985019467e+01
	1.499999924969141e+01
	1.490433434307413e+01
	1.098925529396213e+01
	1.499999943903130e+01
	1.221322415430962e+01
	1.491520084162292e+01
	-7.016517382909780e-04
24		1.728000000000001e-06
	1.403866000656634e+01
	1.415990967080338e+01
	1.025851421370098e+01
	1.500000000000000e+01
	1.025851421462363e+01
	1.017971718098908e+01
	1.480236406628245e+01
	1.480236409225890e+01
	1.406115599874955e+01
	1.403866000633929e+01
	1.403866000292806e+01
	1.017971739989489e+01
	3.865487846505837e+00
	9.692749482332468e+00
	9.601449846239602e+00
	1.017971712402319e+01
	9.687054138972142e+00
	1.415506656359212e+01
	1.498498405436709e+01
	1.482161428817388e+01
	1.499999737461238e+01
	1.415506656359212e+01
	4.133113453925066e+00
	1.220139456283379e+01
	4.222820302408589e+00
	4.133113473129320e+00
	4.222878678418671e+00
	4.222878678362686e+00
	4.222819090909692e+00
	1.098925454805379e+01
	1.421203177977277e+01
	1.355383998177499e+01
	1.499999985020678e+01
	1.499999924968505e+01
	1.490433434309089e+01
	1.098925529885344e+01
	1.499999943902437e+01
	1.221322416028334e+01
	1.491520084164563e+01
	-7.016517187478123e-04
25		1.828000000000002e-06
	1.403866000302116e+01
	1.415990967072282e+01
	1.025851420999393e+01
	1.500000000000000e+01
	1.025851421091778e+01
	1.017971716712433e+01
	1.480236407238205e+01
	1.480236409842012e+01
	1.406115600197103e+01
	1.403866000278110e+01
	1.403865999936986e+01
	1.017971739422065e+01
	3.865487841788781e+00
	9.692749470256409e+00
	9.601449839960008e+00
	1.017971712090535e+01
	9.687054127149656e+00
	1.415506656191320e+01
	1.498498405088876e+01
	1.482161433765913e+01
	1.499999736944253e+01
	1.415506656191320e+01
	4.133113449100672e+00
	1.220139456816236e+01
	4.222820297723915e+00
	4.133113468304876e+00
	4.222878679209948e+00
	4.222878679250061e+00
	4.222819086234511e+00
	1.098925455246203e+01
	1.421203178926374e+01
	1.355383999654606e+01
	1.499999985019630e+01
	1.499999924968482e+01
	1.490433434310594e+01
	1.098925530321320e+01
	1.499999943902665e+01
	1.221322416566112e+01
	1.491520084166577e+01
	-7.016517370053484e-04
26		1.928000000000002e-06
	1.403865999949377e+01
	1.415990967064724e+01
	1.025851420632930e+01
	1.500000000000000e+01
	1.025851420725446e+01
	1.017971715527360e+01
	1.480236407859978e+01
	1.480236410460870e+01
	1.406115600516933e+01
	1.403865999926673e+01
	1.403865999585549e+01
	1.017971738866130e+01
	3.865487837512028e+00
	9.692749459670043e+00
	9.601449834105917e+00
	1.017971711831680e+01
	9.687054116693519e+00
	1.415506656048995e+01
	1.498498404748221e+01
	1.482161438707414e+01
	1.499999736438344e+01
	1.415506656048995e+01
	4.133113444704164e+00
	1.220139457305616e+01
	4.222820293476227e+00
	4.133113463908382e+00
	4.222878679556535e+00
	4.222878679503451e+00
	4.222819081994326e+00
	1.098925455626499e+01
	1.421203179823943e+01
	1.355384000989206e+01
	1.499999985020609e+01
	1.499999924968751e+01
	1.490433434311880e+01
	1.098925530691723e+01
	1.499999943902511e+01
	1.221322417041558e+01
	1.491520084168370e+01
	-7.016517175502824e-04
27		2.028000000000002e-06
	1.403865999579831e+01
	1.415990967057471e+01
	1.025851420246750e+01
	1.500000000000000e+01
	1.025851420339363e+01
	1.017971714492850e+01
	1.480236408465350e+01
	1.480236411070391e+01
	1.406115600840805e+01
	1.403865999555820e+01
	1.403865999214695e+01
	1.017971738329225e+01
	3.865487833623370e+00
	9.692749450176294e+00
	9.601449828159391e+00
	1.017971711598418e+01
	9.687054107326279e+00
	1.415506655931079e+01
	1.498498404419391e+01
	1.482161443616939e+01
	1.499999735951041e+01
	1.415506655931079e+01
	4.133113440717485e+00
	1.220139457750178e+01
	4.222820289613645e+00
	4.133113459921749e+00
	4.222878679635475e+00
	4.222878679676683e+00
	4.222819078138559e+00
	1.098925455952650e+01
	1.421203180595459e+01
	1.355384002191687e+01
	1.499999985019330e+01
	1.499999924969172e+01
	1.490433434312962e+01
	1.098925531014654e+01
	1.499999943902659e+01
	1.221322417474477e+01
	1.491520084169927e+01
	-7.016517358606113e-04
28		2.128000000000001e-06
	1.403865999214310e+01
	1.415990967050393e+01
	1.025851419867226e+01
	1.500000000000000e+01
	1.025851419959887e+01
	1.017971713609673e+01
	1.480236409083333e+01
	1.480236411686673e+01
	1.406115601183353e+01
	1.403865999191607e+01
	1.403865998850484e+01
	1.017971737797439e+01
	3.865487830024203e+00
	9.692749441640830e+00
	9.601449822624303e+00
	1.017971711382386e+01
	9.687054098855183e+00
	1.415506655798332e+01
	1.498498404093914e+01
	1.482161448533976e+01
	1.499999735468692e+01
	1.415506655798332e+01
	4.133113437031382e+00
	1.220139458142477e+01
	4.222820286037757e+00
	4.133113456235630e+00
	4.222878679288956e+00
	4.222878679238313e+00
	4.222819074568109e+00
	1.098925456220556e+01
	1.421203181335309e+01
	1.355384003269734e+01
	1.499999985020388e+01
	1.499999924968769e+01
	1.490433434313830e+01
	1.098925531273483e+01
	1.499999943902446e+01
	1.221322417868553e+01
	1.491520084171212e+01
	-7.016517164793977e-04
29		2.228000000000001e-06
	1.403865998833448e+01
	1.415990967043634e+01
	1.025851419469666e+01
	1.500000000000000e+01
	1.025851419562400e+01
	1.017971712830458e+01
	1.480236409693602e+01
	1.480236412303088e+01
	1.406115601513438e+01
	1.403865998809432e+01
	1.403865998468308e+01
	1.017971737284909e+01
	3.865487826741191e+00
	9.692749433838591e+00
	9.601449816949639e+00
	1.017971711173579e+01
	9.687054091106724e+00
	1.415506655672179e+01
	1.498498403780482e+01
	1.482161453475932e+01
	1.499999735005150e+01
	1.415506655672179e+01
	4.133113433640468e+00
	1.220139458488239e+01
	4.222820282775372e+00
	4.133113452844673e+00
	4.222878678746110e+00
	4.222878678788662e+00
	4.222819071310741e+00
	1.098925456444613e+01
	1.421203181954397e+01
	1.355384004239629e+01
	1.499999985019783e+01
	1.499999924968701e+01
	1.490433434314545e+01
	1.098925531495973e+01
	1.499999943902592e+01
	1.221322418221046e+01
	1.491520084172310e+01
	-7.016517348435204e-04
30		2.328000000000001e-06
	1.403865998457148e+01
	1.415990967037009e+01
	1.025851419079304e+01
	1.500000000000000e+01
	1.025851419172080e+01
	1.017971712159976e+01
	1.480236410316964e+01
	1.480236412923039e+01
	1.406115601832984e+01
	1.403865998434445e+01
	1.403865998093322e+01
	1.017971736771009e+01