Title: kicad schematic
Date: Tue Nov 18 17:55:53  2025
Plotname: Transient Analysis
Flags: real
No. Variables: 15
No. Points: 1008    
Variables:
	0	time	time
	1	v(vcc)	voltage
	2	v(net-_d2-pad2_)	voltage
	3	v(net-_m5-pad3_)	voltage
	4	v(net-_d3-pad2_)	voltage
	5	v(net-_d4-pad1_)	voltage
	6	v(net-_m3-pad3_)	voltage
	7	v(output)	voltage
	8	v(bias_current)	voltage
	9	v(input2)	voltage
	10	v(net-_m5-pad2_)	voltage
	11	v(net-_m1-pad1_)	voltage
	12	v(input1)	voltage
	13	v(net-_m1-pad3_)	voltage
	14	i(v1)	current
Values:
0		0.000000000000000e+00
	1.199999999998800e+01
	1.199391612360151e+01
	1.153760099640217e+01
	1.189455967959183e+01
	1.053886370649868e-01
	1.199391504100994e+01
	1.054596626363430e-01
	3.048519153799790e-65
	0.000000000000000e+00
	0.000000000000000e+00
	2.420028291173041e+00
	0.000000000000000e+00
	2.651035139623426e-02
	-1.179393807203606e-08
1		1.000000000000000e-06
	1.199999999998800e+01
	1.199391612359650e+01
	1.153760099636393e+01
	1.189455967959022e+01
	1.053886370636680e-01
	1.199391504100525e+01
	1.054596626337322e-01
	-2.623430444236019e-15
	-1.328365069513932e-13
	-1.329693434583446e-13
	2.420028291166763e+00
	-4.010927503913741e-14
	2.651035138886663e-02
	-1.179393165891829e-08
2		2.000000000000001e-06
	1.199999999998800e+01
	1.199391612359435e+01
	1.153760099634393e+01
	1.189455967958835e+01
	1.053886370630091e-01
	1.199391504100309e+01
	1.054596626336089e-01
	-5.184532816081278e-15
	-2.102746478022948e-13
	-2.104849224500972e-13
	2.420028291163567e+00
	-7.024370830133997e-14
	2.651035138165773e-02
	-1.179395412866067e-08
3		4.000000000000002e-06
	1.199999999998800e+01
	1.199391612359100e+01
	1.153760099630758e+01
	1.189455967958433e+01
	1.053886370620964e-01
	1.199391504099959e+01
	1.054596626330877e-01
	-1.023281530039902e-14
	-3.561634313225774e-13
	-3.565195947538999e-13
	2.420028291158216e+00
	-1.238017542474260e-13
	2.651035136738706e-02
	-1.179392735515633e-08
4		8.000000000000003e-06
	1.199999999998800e+01
	1.199391612358003e+01
	1.153760099626299e+01
	1.189455967958088e+01
	1.053886370588055e-01
	1.199391504098671e+01
	1.054596626293892e-01
	-1.437132171892754e-14
	-5.231696706596256e-13
	-5.236928403302853e-13
	2.420028291146094e+00
	-1.923091723755505e-13
	2.651035135479211e-02
	-1.179391916151625e-08
5		1.600000000000001e-05
	1.199999999998800e+01
	1.199391612354931e+01
	1.153760099613131e+01
	1.189455967957528e+01
	1.053886370508834e-01
	1.199391504095623e+01
	1.054596626216037e-01
	-1.807573561044950e-14
	-9.323117249226244e-13
	-9.332440366475470e-13
	2.420028291115718e+00
	-3.149586656739313e-13
	2.651035134438505e-02
	-1.179392459366427e-08
6		3.200000000000001e-05
	1.199999999998800e+01
	1.199391612352511e+01
	1.153760099585144e+01
	1.189455967955180e+01
	1.053886370475671e-01
	1.199391504093460e+01
	1.054596626194659e-01
	-4.378542003253237e-14
	-1.952663968667258e-12
	-1.954616632635926e-12
	2.420028291082603e+00
	-6.272670487130510e-13
	2.651035127392039e-02
	-1.179393351899774e-08
7		6.400000000000002e-05
	1.199999999998800e+01
	1.199391612348766e+01
	1.153760099575288e+01
	1.189455967949089e+01
	1.053886370488019e-01
	1.199391504089293e+01
	1.054596626205433e-01
	-9.338999537621736e-14
	-2.653575771996733e-12
	-2.656229347768730e-12
	2.420028291025564e+00
	-1.202887629809379e-12
	2.651035113557462e-02
	-1.179392499075869e-08
8		1.280000000000000e-04
	1.199999999998800e+01
	1.199391612338360e+01
	1.153760099560513e+01
	1.189455967932726e+01
	1.053886370469424e-01
	1.199391504079177e+01
	1.054596626187857e-01
	-1.306089839146068e-13
	-3.400965829706519e-12
	-3.404366795536226e-12
	2.420028290891513e+00
	-1.910287454972117e-12
	2.651035102642860e-02
	-1.179394485770446e-08
9		2.280000000000001e-04
	1.199999999998800e+01
	1.199391612333443e+01
	1.153760099445376e+01
	1.189455967894254e+01
	1.053886370918174e-01
	1.199391504074100e+01
	1.054596626644096e-01
	-5.459855454575425e-14
	-6.130525633442715e-12
	-6.136656159076158e-12
	2.420028290833885e+00
	-1.470990647861238e-12
	2.651035123305192e-02
	-1.179394689006612e-08
10		3.280000000000002e-04
	1.199999999998800e+01
	1.199391612324467e+01
	1.153760099311079e+01
	1.189455967852448e+01
	1.053886371887423e-01
	1.199391504065180e+01
	1.054596627623132e-01
	9.307867858084941e-14
	-8.796468310624922e-12
	-8.805264778935547e-12
	2.420028290764288e+00
	-4.401601556172941e-13
	2.651035164892694e-02
	-1.179394161040447e-08
11		4.280000000000002e-04
	1.199999999998800e+01
	1.199391612307210e+01
	1.153760099259729e+01
	1.189455967819317e+01
	1.053886373013418e-01
	1.199391504047866e+01
	1.054596628751559e-01
	1.981485823674117e-13
	-9.393883861446809e-12
	-9.403277745308256e-12
	2.420028290634860e+00
	6.903336120610895e-14
	2.651035195050999e-02
	-1.179394420871483e-08
12		5.280000000000003e-04
	1.199999999998800e+01
	1.199391612289593e+01
	1.153760099184137e+01
	1.189455967778224e+01
	1.053886374203402e-01
	1.199391504030276e+01
	1.054596629943152e-01
	2.538044373192466e-13
	-1.108427275566803e-11
	-1.109535702842370e-11
	2.420028290511233e+00
	2.053842244673430e-13
	2.651035211778704e-02
	-1.179394092843103e-08
13		6.280000000000003e-04
	1.199999999998800e+01
	1.199391612271328e+01
	1.153760099027301e+01
	1.189455967738988e+01
	1.053886375585360e-01
	1.199391504012015e+01
	1.054596631339171e-01
	2.897702609409641e-13
	-1.529043679182103e-11
	-1.530572722861285e-11
	2.420028290364477e+00
	1.163364670427856e-13
	2.651035223312174e-02
	-1.179395222229135e-08
14		7.280000000000003e-04
	1.199999999998800e+01
	1.199391612259670e+01
	1.153760098881855e+01
	1.189455967705393e+01
	1.053886377775127e-01
	1.199391504000378e+01
	1.054596633546900e-01
	3.147937046801700e-13
	-1.925474069969534e-11
	-1.927399544039504e-11
	2.420028290293610e+00
	1.601080557391548e-13
	2.651035231874727e-02
	-1.179394016276544e-08
15		8.280000000000004e-04
	1.199999999998800e+01
	1.199391612251949e+01
	1.153760098776506e+01
	1.189455967661666e+01
	1.053886380550530e-01
	1.199391503992656e+01
	1.054596636329639e-01
	3.299268122564742e-13
	-2.213207134787478e-11
	-2.215420341922265e-11
	2.420028290289132e+00
	3.248968026927810e-13
	2.651035237768255e-02
	-1.179394117902999e-08
16		9.280000000000004e-04
	1.199999999998800e+01
	1.199391612245706e+01
	1.153760098789696e+01
	1.189455967634020e+01
	1.053886383334657e-01
	1.199391503986420e+01
	1.054596639111573e-01
	3.383597299778029e-13
	-2.162392194672773e-11
	-2.164554586867446e-11
	2.420028290339149e+00
	5.940790496577091e-13
	2.651035241853836e-02
	-1.179392271924878e-08
17		1.028000000000000e-03
	1.199999999998800e+01
	1.199391612237109e+01
	1.153760098768940e+01
	1.189455967616568e+01
	1.053886385642162e-01
	1.199391503977788e+01
	1.054596641412638e-01
	3.421131836888391e-13
	-2.213399576816277e-11
	-2.215612976393093e-11
	2.420028290324098e+00
	6.377973796309173e-13
	2.651035244650295e-02
	-1.179392516150238e-08
18		1.128000000000001e-03
	1.199999999998800e+01
	1.199391612223434e+01
	1.153760098637454e+01
	1.189455967593681e+01
	1.053886387792955e-01
	1.199391503964226e+01
	1.054596643579857e-01
	3.427477960195151e-13
	-2.589365143716837e-11
	-2.591954508860554e-11
	2.420028290193077e+00
	3.122776576264366e-13
	2.651035246472709e-02
	-1.179393406870071e-08
19		1.228000000000001e-03
	1.199999999998800e+01
	1.199391612219627e+01
	1.153760098507854e+01
	1.189455967560951e+01
	1.053886390833246e-01
	1.199391503960285e+01
	1.054596646634455e-01
	3.410479550543721e-13
	-2.961204890305229e-11
	-2.964166095195534e-11
	2.420028290194141e+00
	3.485811777800961e-13
	2.651035247719486e-02
	-1.179392820268294e-08
20		1.328000000000001e-03
	1.199999999998800e+01
	1.199391612216515e+01
	1.153760098416736e+01
	1.189455967522806e+01
	1.053886394249125e-01
	1.199391503957261e+01
	1.054596650057488e-01
	3.379002078276539e-13
	-3.223528147310039e-11
	-3.226751675457349e-11
	2.420028290251456e+00
	5.456671905181120e-13
	2.651035248609063e-02
	-1.179392995229414e-08
21		1.428000000000001e-03
	1.199999999998800e+01
	1.199391612211092e+01
	1.153760098429661e+01
	1.189455967505949e+01
	1.053886397409121e-01
	1.199391503951860e+01
	1.054596653215358e-01
	3.345488135516250e-13
	-3.184218974593048e-11
	-3.187403193567642e-11
	2.420028290307984e+00
	7.345606122813450e-13
	2.651035249300453e-02
	-1.179393862392259e-08
22		1.528000000000001e-03
	1.199999999998800e+01
	1.199391612199058e+01
	1.153760098428612e+01
	1.189455967497612e+01
	1.053886399919985e-01
	1.199391503939727e+01
	1.054596655720345e-01
	3.303550179044974e-13
	-3.185801350137898e-11
	-3.188987151488036e-11
	2.420028290264887e+00
	6.228369078295398e-13
	2.651035249756403e-02
	-1.179391174250105e-08
23		1.628000000000001e-03
	1.199999999998800e+01
	1.199391612179882e+01
	1.153760098259223e+01
	1.189455967474744e+01
	1.053886402436670e-01
	1.199391503920610e+01
	1.054596658253832e-01
	3.247225503489855e-13
	-3.676724438986757e-11
	-3.680401163425743e-11
	2.420028290103574e+00
	1.516866514092472e-13
	2.651035249888475e-02
	-1.179392077351059e-08
24		1.728000000000001e-03
	1.199999999998800e+01
	1.199391612167742e+01
	1.153760098057019e+01
	1.189455967432057e+01
	1.053886406176466e-01
	1.199391503908438e+01
	1.054596662019381e-01
	3.187946851353164e-13
	-4.263636872755300e-11
	-4.267900509628056e-11
	2.420028290039145e+00
	-3.759443087421255e-14
	2.651035249926567e-02
	-1.179393704846227e-08
25		1.828000000000001e-03
	1.199999999998800e+01
	1.199391612171109e+01
	1.153760098023984e+01
	1.189455967386108e+01
	1.053886410629223e-01
	1.199391503911941e+01
	1.054596666477678e-01
	3.138360831113221e-13
	-4.358250264726964e-11
	-4.362608514991691e-11
	2.420028290184820e+00
	3.976838082912419e-13
	2.651035250095574e-02
	-1.179393217775266e-08
26		1.928000000000001e-03
	1.199999999998800e+01
	1.199391612178589e+01
	1.153760097966249e+01
	1.189455967340160e+01
	1.053886414670071e-01
	1.199391503919358e+01
	1.054596670511682e-01
	3.089281675388916e-13
	-4.525585776901739e-11
	-4.530111362678641e-11
	2.420028290379786e+00
	9.707062979746365e-13
	2.651035250187384e-02
	-1.179393517241014e-08
27		2.028000000000001e-03
	1.199999999998800e+01
	1.199391612166242e+01
	1.153760097867247e+01
	1.189455967297000e+01
	1.053886418085838e-01
	1.199391503906969e+01
	1.054596673932752e-01
	3.034921082891232e-13
	-4.812238626034721e-11
	-4.817050864660756e-11
	2.420028290345507e+00
	8.698450244947817e-13
	2.651035250174334e-02
	-1.179393704277723e-08
28		2.128000000000001e-03
	1.199999999998800e+01
	1.199391612149893e+01
	1.153760097816182e+01
	1.189455967259898e+01
	1.053886421446003e-01
	1.199391503890674e+01
	1.054596677295406e-01
	2.981480435936901e-13
	-4.961201755894102e-11
	-4.966162957649996e-11
	2.420028290216077e+00
	5.026366703975656e-13
	2.651035250177851e-02
	-1.179394090024088e-08
29		2.228000000000002e-03
	1.199999999998800e+01
	1.199391612139138e+01
	1.153760097773463e+01
	1.189455967230619e+01
	1.053886424754250e-01
	1.199391503879879e+01
	1.054596680605226e-01
	2.927489556380034e-13
	-5.085486301320182e-11
	-5.090571787621502e-11
	2.420028290152024e+00
	3.144627018317346e-13
	2.651035250181885e-02
	-1.179395157666980e-08
30		2.328000000000002e-03
	1.199999999998800e+01
	1.199391612127954e+01
	1.153760097691589e+01
	1.189455967200209e+01
	1.053886427900382e-01
	1.199391503868712e+01
	1.054596683756308e-01
	2.873675909997051e-13
	-5.323096181529598e-11
	-5.328419277711128e-11
	2.420028290122754e+00
	2.285336955367199e-13
	2.651035250144948e-02
	-1.179394625791516e-08
31		2.428000000000002e-03
	1.199999999998800e+01
	1.199391612129511e+01
	1.153760097577824e+01
	1.189455967154737e+01
	1.053886431562890e-01
	1.199391503870276e+01
	1.054596687432345e-01
	2.818168638176691e-13
	-5.653554721906375e-11
	-5.659208276628281e-11
	2.420028290236046e+00
	5.533984791519637e-13
	2.651035250085378e-02
	-1.179395547994239e-08
32		2.528000000000002e-03
	1.199999999998800e+01
	1.199391612144548e+01
	1.153760097590962e+01
	1.189455967117912e+01
	1.053886435427379e-01
	1.199391503885370e+01
	1.054596691293156e-01
	2.767413763291515e-13
	-5.615416827170069e-11
	-5.621032243997240e-11
	2.420028290503043e+00
	1.323204476651162e-12
	2.651035250159451e-02
	-1.179394902060409e-08
33		2.628000000000003e-03
	1.199999999998800e+01
	1.199391612155063e+01
	1.153760097591294e+01
	1.189455967090136e+01
	1.053886438343381e-01
	1.199391503895704e+01
	1.054596694199457e-01
	2.718672133256031e-13
	-5.614887160656160e-11
	-5.620502047816817e-11
	2.420028290708555e+00
	1.922070668194570e-12
	2.651035250198207e-02
	-1.179394263651177e-08
34		2.728000000000003e-03
	1.199999999998800e+01
	1.199391612156530e+01
	1.153760097440746e+01
	1.189455967056840e+01
	1.053886440964913e-01
	1.199391503897256e+01
	1.054596696833564e-01
	2.667594149182795e-13
	-6.052106273774089e-11
	-6.058158380047863e-11
	2.420028290815504e+00
	2.223668559168871e-12
	2.651035250073422e-02
	-1.179395100721742e-08
35		2.828000000000003e-03
	1.199999999998800e+01
	1.199391612160645e+01
	1.153760097297117e+01
	1.189455967013276e+01
	1.053886444347945e-01
	1.199391503901379e+01
	1.054596700233243e-01
	2.615843993643936e-13
	-6.468703955747708e-11
	-6.475172659703456e-11
	2.420028290965280e+00
	2.659758460198056e-12
	2.651035249967361e-02
	-1.179395235980671e-08
36		2.928000000000004e-03
	1.199999999998800e+01
	1.199391612158326e+01
	1.153760097251899e+01
	1.189455966971321e+01
	1.053886447669910e-01
	1.199391503899085e+01
	1.054596703552686e-01
	2.567543667773972e-13
	-6.599670250814199e-11
	-6.606269921065014e-11
	2.420028291038991e+00
	2.868866778153041e-12
	2.651035249962053e-02
	-1.179394735345792e-08
37		3.028000000000004e-03
	1.199999999998800e+01
	1.199391612150248e+01
	1.153760097201603e+01
	1.189455966941670e+01
	1.053886450497389e-01
	1.199391503891048e+01
	1.054596706382185e-01
	2.518808661536136e-13
	-6.746530112752756e-11
	-6.753276642865509e-11
	2.420028291049477e+00
	2.903571823889359e-12
	2.651035249939369e-02
	-1.179392941779528e-08
38		3.128000000000004e-03
	1.199999999998800e+01
	1.199391612137299e+01
	1.153760097207914e+01
	1.189455966919243e+01
	1.053886452927032e-01
	1.199391503878015e+01
	1.054596708807890e-01
	2.478395449073212e-13
	-6.728055619750247e-11
	-6.734783675369998e-11
	2.420028290998917e+00
	2.760340203625418e-12
	2.651035249958439e-02
	-1.179393788763108e-08
39		3.228000000000004e-03
	1.199999999998800e+01
	1.199391612130684e+01
	1.153760097233518e+01
	1.189455966907391e+01
	1.053886455003609e-01
	1.199391503871424e+01
	1.054596710881842e-01
	2.435943546890860e-13
	-6.653875237760398e-11
	-6.660529112998159e-11
	2.420028291013977e+00
	2.805829584433020e-12
	2.651035249994716e-02
	-1.179392615458289e-08
40		3.328000000000005e-03
	1.199999999998800e+01
	1.199391612137054e+01
	1.153760097191496e+01
	1.189455966899544e+01
	1.053886457161865e-01
	1.199391503877711e+01
	1.054596713043856e-01
	2.393199604688954e-13
	-6.775787441006497e-11
	-6.782563228447505e-11
	2.420028291207746e+00
	3.366416993917864e-12
	2.651035249974176e-02
	-1.179394093246087e-08
41		3.428000000000005e-03
	1.199999999998800e+01
	1.199391612140318e+01
	1.153760097072359e+01
	1.189455966882811e+01
	1.053886459578995e-01
	1.199391503881086e+01
	1.054596715472156e-01
	2.346924704002464e-13
	-7.120891678535285e-11
	-7.128012570213821e-11
	2.420028291345433e+00
	3.763953033593017e-12
	2.651035249878813e-02
	-1.179394666609687e-08
42		3.528000000000005e-03
	1.199999999998800e+01
	1.199391612137288e+01
	1.153760096967297e+01
	1.189455966859487e+01
	1.053886462253100e-01
	1.199391503878058e+01
	1.054596718159577e-01
	2.306799381097653e-13
	-7.426392495521384e-11
	-7.433818888016905e-11
	2.420028291401663e+00
	3.931815850093493e-12
	2.651035249802897e-02
	-1.179394681088173e-08
43		3.628000000000005e-03
	1.199999999998800e+01
	1.199391612132356e+01
	1.153760096910888e+01
	1.189455966836583e+01
	1.053886465252402e-01
	1.199391503872991e+01
	1.054596721161175e-01
	2.264734166396382e-13
	-7.590435307123759e-11
	-7.598025742430883e-11
	2.420028291394782e+00
	3.916439196719215e-12
	2.651035249767294e-02
	-1.179394913430863e-08
44		3.728000000000006e-03
	1.199999999998800e+01
	1.199391612127554e+01
	1.153760096934968e+01
	1.189455966823143e+01
	1.053886468250843e-01
	1.199391503868295e+01
	1.054596724158163e-01
	2.227476626000431e-13
	-7.520358826496167e-11
	-7.527879185322663e-11
	2.420028291360802e+00
	3.819974908111114e-12
	2.651035249803122e-02
	-1.179393634292109e-08
45		3.828000000000006e-03
	1.199999999998800e+01
	1.199391612123670e+01
	1.153760097000793e+01
	1.189455966819009e+01
	1.053886470555491e-01
	1.199391503864406e+01
	1.054596726452056e-01
	2.188244567101136e-13
	-7.328342442205875e-11
	-7.335670784648082e-11
	2.420028291344228e+00
	3.765901841260095e-12
	2.651035249868520e-02
	-1.179390196581515e-08
46		3.928000000000006e-03
	1.199999999998800e+01
	1.199391612116886e+01
	1.153760097009785e+01
	1.189455966818713e+01
	1.053886472220140e-01
	1.199391503857542e+01
	1.054596728113959e-01
	2.147984515135735e-13
	-7.301760431069790e-11
	-7.309062191500860e-11
	2.420028291291015e+00
	3.606345760627307e-12
	2.651035249867347e-02
	-1.179393827886538e-08
47		4.028000000000006e-03
	1.199999999998800e+01
	1.199391612112237e+01
	1.153760097038146e+01
	1.189455966819792e+01
	1.053886473723829e-01
	1.199391503852876e+01
	1.054596729617325e-01
	2.108528602369139e-13
	-7.219050023359820e-11
	-7.226269073383180e-11
	2.420028291294210e+00
	3.609997041735584e-12
	2.651035249889595e-02
	-1.179393824262536e-08
48		4.128000000000007e-03
	1.199999999998800e+01
	1.199391612107385e+01
	1.153760097052186e+01
	1.189455966807552e+01
	1.053886474892718e-01
	1.199391503848009e+01
	1.054596730779368e-01
	2.072080706886151e-13
	-7.177213518871194e-11
	-7.184390732390066e-11
	2.420028291329138e+00
	3.713536205937586e-12
	2.651035249911537e-02
	-1.179391049249525e-08
49		4.228000000000007e-03
	1.199999999998800e+01
	1.199391612096371e+01
	1.153760097034199e+01
	1.189455966799038e+01
	1.053886475676998e-01
	1.199391503837086e+01
	1.054596731564788e-01
	2.032615121003297e-13
	-7.229968191636904e-11
	-7.237198159828541e-11
	2.420028291327558e+00
	3.709296994275593e-12
	2.651035249894569e-02
	-1.179391243475167e-08
50		4.328000000000007e-03
	1.199999999998800e+01
	1.199391612079967e+01
	1.153760097061654e+01
	1.189455966794968e+01
	1.053886476209647e-01
	1.199391503820570e+01
	1.054596732092507e-01
	1.995399237687693e-13
	-7.149627029448001e-11
	-7.156776656477450e-11
	2.420028291241946e+00
	3.460051759401780e-12
	2.651035249909643e-02
	-1.179392054420987e-08
51		4.428000000000007e-03
	1.199999999998800e+01
	1.199391612061727e+01
	1.153760097178676e+01
	1.189455966783472e+01
	1.053886476056811e-01
	1.199391503802316e+01
	1.054596731925266e-01
	1.961090710260243e-13
	-6.809491269887336e-11
	-6.816300761157224e-11
	2.420028291143030e+00
	3.176685816073965e-12
	2.651035250015597e-02
	-1.179392226525818e-08
52		4.528000000000008e-03
	1.199999999998800e+01
	1.199391612051294e+01
	1.153760097184075e+01
	1.189455966782657e+01
	1.053886475357281e-01
	1.199391503791962e+01
	1.054596731219063e-01
	1.922822761202172e-13
	-6.793686664751274e-11
	-6.800480351416027e-11
	2.420028291127945e+00
	3.132930736880121e-12
	2.651035250006901e-02
	-1.179391917180077e-08
53		4.628000000000008e-03
	1.199999999998800e+01
	1.199391612040993e+01
	1.153760097086698e+01
	1.189455966795160e+01
	1.053886475036330e-01
	1.199391503781632e+01
	1.054596730914442e-01
	1.882055895543111e-13
	-7.075651206985021e-11
	-7.082726858192006e-11
	2.420028291072303e+00
	2.969182169682474e-12
	2.651035249899304e-02
	-1.179391122214200e-08
54		4.728000000000008e-03
	1.199999999998800e+01
	1.199391612033611e+01
	1.153760096983173e+01
	1.189455966800397e+01
	1.053886475711664e-01
	1.199391503774394e+01
	1.054596731606023e-01
	1.847119835286359e-13
	-7.376438794024054e-11
	-7.383815232818079e-11
	2.420028291029558e+00
	2.833205884384716e-12
	2.651035249804028e-02
	-1.179391613020805e-08
55		4.828000000000009e-03
	1.199999999998800e+01
	1.199391612031609e+01
	1.153760096959629e+01
	1.189455966786135e+01
	1.053886477101939e-01
	1.199391503772402e+01
	1.054596733001587e-01
	1.812377796396505e-13
	-7.444971467265192e-11
	-7.452416438732457e-11
	2.420028291035122e+00
	2.845944994025514e-12
	2.651035249795498e-02
	-1.179391581106804e-08
56		4.928000000000009e-03
	1.199999999998800e+01
	1.199391612023846e+01
	1.153760096931260e+01
	1.189455966763780e+01
	1.053886478295216e-01
	1.199391503764551e+01
	1.054596734188706e-01
	1.781882221662439e-13
	-7.527106704093874e-11
	-7.534633810797968e-11
	2.420028290998562e+00
	2.738626644239486e-12
	2.651035249774681e-02
	-1.179392554091412e-08
57		5.028000000000009e-03
	1.199999999998800e+01
	1.199391612016483e+01
	1.153760096835880e+01
	1.189455966752600e+01
	1.053886479586696e-01
	1.199391503757130e+01
	1.054596735495519e-01
	1.748242816382002e-13
	-7.803942530375951e-11
	-7.811746472906327e-11
	2.420028291000382e+00
	2.742061310477116e-12
	2.651035249694490e-02
	-1.179392849896740e-08
58		5.128000000000009e-03
	1.199999999998800e+01
	1.199391612020726e+01
	1.153760096712614e+01
	1.189455966741268e+01
	1.053886481808887e-01
	1.199391503761401e+01
	1.054596737732283e-01
	1.716863921809222e-13
	-8.161863043230088e-11
	-8.170024906273319e-11
	2.420028291129384e+00
	3.112526172860695e-12
	2.651035249603097e-02
	-1.179392809653339e-08
59		5.228000000000010e-03
	1.199999999998800e+01
	1.199391612025377e+01
	1.153760096627990e+01
	1.189455966715832e+01
	1.053886484571711e-01
	1.199391503766142e+01
	1.054596740506602e-01
	1.681891235847830e-13
	-8.408022683952852e-11
	-8.416430706636806e-11
	2.420028291261819e+00
	3.503642076270003e-12
	2.651035249559660e-02
	-1.179393448264846e-08
60		5.328000000000010e-03
	1.199999999998800e+01
	1.199391612016579e+01
	1.153760096650068e+01
	1.189455966692959e+01
	1.053886486849647e-01
	1.199391503757383e+01
	1.054596742773842e-01
	1.655111018670965e-13
	-8.344138229081642e-11
	-8.352482367310724e-11
	2.420028291282844e+00
	3.561182140304950e-12
	2.651035249601074e-02
	-1.179394255377986e-08
61		5.428000000000010e-03
	1.199999999998800e+01
	1.199391612007474e+01
	1.153760096703452e+01
	1.189455966683799e+01
	1.053886488543136e-01
	1.199391503748262e+01
	1.054596744462397e-01
	1.629502298882129e-13
	-8.189686874714878e-11
	-8.197876561589594e-11
	2.420028291313126e+00
	3.656848995638608e-12
	2.651035249664813e-02
	-1.179392470170739e-08
62		5.528000000000010e-03
	1.199999999998800e+01
	1.199391612013321e+01
	1.153760096688326e+01
	1.189455966672531e+01
	1.053886490213742e-01
	1.199391503754025e+01
	1.054596746131828e-01
	1.595707971275640e-13
	-8.234051011529176e-11
	-8.242285062540706e-11
	2.420028291445204e+00
	4.036115694312025e-12
	2.651035249659092e-02
	-1.179393285913831e-08
63		5.628000000000011e-03
	1.199999999998800e+01
	1.199391612007708e+01
	1.153760096623119e+01
	1.189455966658844e+01
	1.053886491529724e-01
	1.199391503748406e+01
	1.054596747451306e-01
	1.565371791201588e-13
	-8.423577357373252e-11
	-8.432000934730625e-11
	2.420028291453014e+00
	4.054486891809090e-12
	2.651035249595709e-02
	-1.179393201217259e-08
64		5.728000000000011e-03
	1.199999999998800e+01
	1.199391611994160e+01
	1.153760096581579e+01
	1.189455966647041e+01
	1.053886492768886e-01
	1.199391503734847e+01
	1.054596748696834e-01
	1.532945591211504e-13
	-8.544097418652583e-11
	-8.552641516071236e-11
	2.420028291387169e+00
	3.860871726788845e-12
	2.651035249553903e-02
	-1.179393338099897e-08
65		5.828000000000011e-03
	1.199999999998800e+01
	1.199391612000201e+01
	1.153760096466590e+01
	1.189455966632560e+01
	1.053886494794396e-01
	1.199391503740896e+01
	1.054596750737904e-01
	1.501863208992239e-13
	-8.878159228326158e-11
	-8.887037387554484e-11
	2.420028291484231e+00
	4.131272335767088e-12
	2.651035249470004e-02
	-1.179393553967231e-08
66		5.928000000000011e-03
	1.199999999998800e+01
	1.199391611997754e+01
	1.153760096289486e+01
	1.189455966608195e+01
	1.053886497424034e-01
	1.199391503738588e+01
	1.054596753381168e-01
	1.467473264757900e-13
	-9.392394486366576e-11
	-9.401786880852943e-11
	2.420028291503017e+00
	4.175260136553416e-12
	2.651035249320503e-02
	-1.179393418932269e-08
67		6.028000000000012e-03
	1.199999999998800e+01
	1.199391611985489e+01
	1.153760096262499e+01
	1.189455966571373e+01
	1.053886500305787e-01
	1.199391503726205e+01
	1.054596756270701e-01
	1.442917000346686e-13
	-9.470053317813505e-11
	-9.479523371131319e-11
	2.420028291415002e+00
	3.926776859228075e-12
	2.651035249315669e-02
	-1.179392814906454e-08
68		6.128000000000012e-03
	1.199999999998800e+01
	1.199391611978127e+01
	1.153760096318708e+01
	1.189455966539244e+01
	1.053886502642950e-01
	1.199391503718791e+01
	1.054596758590719e-01
	1.421251794909723e-13
	-9.306158364827320e-11
	-9.315464523192147e-11
	2.420028291389382e+00
	3.859221240424617e-12
	2.651035249388571e-02
	-1.179393303900149e-08
69		6.228000000000012e-03
	1.199999999998800e+01
	1.199391611976106e+01
	1.153760096279657e+01
	1.189455966505166e+01
	1.053886504462523e-01
	1.199391503716845e+01
	1.054596760412037e-01
	1.396882690898535e-13
	-9.419905650928562e-11
	-9.429325556579492e-11
	2.420028291444726e+00
	4.027875112582117e-12
	2.651035249362326e-02
	-1.179395012953606e-08
70		6.328000000000012e-03
	1.199999999998800e+01
	1.199391611978414e+01
	1.153760096273273e+01
	1.189455966482686e+01
	1.053886506242530e-01
	1.199391503719109e+01
	1.054596762188573e-01
	1.374746602905534e-13
	-9.438562439208617e-11
	-9.448001001647826e-11
	2.420028291549435e+00
	4.336055683329361e-12
	2.651035249374717e-02
	-1.179393697692329e-08
71		6.428000000000013e-03
	1.199999999998800e+01
	1.199391611983921e+01
	1.153760096204396e+01
	1.189455966473199e+01
	1.053886507966042e-01
	1.199391503724666e+01
	1.054596763919936e-01
	1.352367992439076e-13
	-9.638129717226847e-11
	-9.647767846944074e-11
	2.420028291678271e+00
	4.701102716874966e-12
	2.651035249326806e-02
	-1.179395183421888e-08
72		6.528000000000013e-03
	1.199999999998800e+01
	1.199391611986663e+01
	1.153760096133373e+01
	1.189455966448349e+01
	1.053886510022426e-01
	1.199391503727314e+01
	1.054596765980939e-01
	1.324911554979099e-13
	-9.844658866261317e-11
	-9.854503525127579e-11
	2.420028291796192e+00
	5.044392533529105e-12
	2.651035249282959e-02
	-1.179392197967864e-08
73		6.628000000000013e-03
	1.199999999998800e+01
	1.199391611983386e+01
	1.153760096111493e+01
	1.189455966419992e+01
	1.053886511995601e-01
	1.199391503724016e+01
	1.054596767952810e-01
	1.298927209959473e-13
	-9.907762282851083e-11
	-9.917670045133935e-11
	2.420028291890021e+00
	5.320644329477160e-12
	2.651035249286232e-02
	-1.179393143771629e-08
74		6.728000000000013e-03
	1.199999999998800e+01
	1.199391611989824e+01
	1.153760096105451e+01
	1.189455966405718e+01
	1.053886513915048e-01
	1.199391503730568e+01
	1.054596769874216e-01
	1.280352438111886e-13
	-9.925781202112161e-11
	-9.935706983314274e-11
	2.420028292076761e+00
	5.872008004381409e-12
	2.651035249303681e-02
	-1.179395489785798e-08
75		6.828000000000014e-03
	1.199999999998800e+01
	1.199391611993125e+01
	1.153760096091664e+01
	1.189455966398615e+01
	1.053886515592527e-01
	1.199391503733801e+01
	1.054596771547843e-01
	1.260589211276664e-13
	-9.965275794496393e-11
	-9.975241070290890e-11
	2.420028292230029e+00
	6.314667580170964e-12
	2.651035249302279e-02
	-1.179394692807333e-08
76		6.928000000000014e-03
	1.199999999998800e+01
	1.199391611994248e+01
	1.153760096037934e+01
	1.189455966386243e+01
	1.053886517194197e-01
	1.199391503734951e+01
	1.054596773158135e-01
	1.233939962334103e-13
	-1.012103615224373e-10
	-1.013115718839597e-10
	2.420028292341267e+00
	6.632136410499100e-12
	2.651035249267786e-02
	-1.179394698961516e-08
77		7.028000000000014e-03
	1.199999999998800e+01
	1.199391611996136e+01
	1.153760096099099e+01
	1.189455966381957e+01
	1.053886518769943e-01
	1.199391503736873e+01
	1.054596774725512e-01
	1.213526434423956e-13
	-9.943810390462457e-11
	-9.953754200852920e-11
	2.420028292430476e+00
	6.900344885564602e-12
	2.651035249337921e-02
	-1.179394019010820e-08
78		7.128000000000015e-03
	1.199999999998800e+01
	1.199391611987203e+01
	1.153760096131621e+01
	1.189455966381519e+01
	1.053886519471528e-01
	1.199391503727843e+01
	1.054596775418055e-01
	1.189576560899682e-13
	-9.849719351734288e-11
	-9.859569071086023e-11
	2.420028292420828e+00
	6.869523715187766e-12
	2.651035249365963e-02
	-1.179394073704055e-08
79		7.228000000000015e-03
	1.199999999998800e+01
	1.199391611982567e+01
	1.153760096164522e+01
	1.189455966383904e+01
	1.053886519868438e-01
	1.199391503723274e+01
	1.054596775818009e-01
	1.168588761591956e-13
	-9.753386048843020e-11
	-9.763139434891863e-11
	2.420028292417784e+00
	6.866382251517875e-12
	2.651035249386731e-02
	-1.179395592979053e-08
80		7.328000000000015e-03
	1.199999999998800e+01
	1.199391611987772e+01
	1.153760096169642e+01
	1.189455966394460e+01
	1.053886520341494e-01
	1.199391503728466e+01
	1.054596776287110e-01
	1.147047578719130e-13
	-9.738259784598370e-11
	-9.747998044382970e-11
	2.420028292473310e+00
	7.031893084482181e-12
	2.651035249383524e-02
	-1.179394869527340e-08
81		7.428000000000015e-03
	1.199999999998800e+01
	1.199391611986543e+01
	1.153760095999259e+01
	1.189455966387453e+01
	1.053886521200778e-01
	1.199391503727166e+01
	1.054596777165352e-01
	1.121696661878120e-13
	-1.023355079804213e-10
	-1.024378434884018e-10
	2.420028292515151e+00
	7.157257220166141e-12
	2.651035249225626e-02
	-1.179394076300433e-08
82		7.528000000000016e-03
	1.199999999998800e+01
	1.199391611975731e+01
	1.153760095867722e+01
	1.189455966363199e+01
	1.053886522941734e-01
	1.199391503716350e+01
	1.054596778922528e-01
	1.092763998457010e-13
	-1.061563612537491e-10
	-1.062625176150029e-10
	2.420028292452485e+00
	6.967817943667180e-12
	2.651035249109580e-02
	-1.179393988786674e-08
83		7.628000000000016e-03
	1.199999999998800e+01
	1.199391611975534e+01
	1.153760095721590e+01
	1.189455966331317e+01
	1.053886525534988e-01
	1.199391503716262e+01
	1.054596781532942e-01
	1.065121993018949e-13
	-1.103922710489908e-10
	-1.105026633200398e-10
	2.420028292491561e+00
	7.077916866100174e-12
	2.651035249003606e-02