Title: kicad schematic
Date: Tue Nov 18 17:52:27  2025
Plotname: Transient Analysis
Flags: real
No. Variables: 23
No. Points: 508     
Variables:
	0	time	time
	1	v(vdd)	voltage
	2	v(vee)	voltage
	3	v(bias)	voltage
	4	v(signal_input_1)	voltage
	5	v(signal_input_2)	voltage
	6	v(carrier_input_1)	voltage
	7	v(carrier_input_2)	voltage
	8	v(net-_r1-pad2_)	voltage
	9	v(net-_m3-pad3_)	voltage
	10	v(gain_adjust_2)	voltage
	11	v(net-_m1-pad3_)	voltage
	12	v(output1)	voltage
	13	v(gain_adjust_1)	voltage
	14	v(net-_m6-pad3_)	voltage
	15	v(net-_m5-pad3_)	voltage
	16	i(vcar2)	current
	17	i(vcar1)	current
	18	i(vsig2)	current
	19	i(vsig1)	current
	20	i(vbias)	current
	21	i(vee)	current
	22	i(vdd)	current
Values:
0		0.000000000000000e+00
	5.000000000000000e+00
	0.000000000000000e+00
	1.200000000000000e+00
	0.000000000000000e+00
	0.000000000000000e+00
	0.000000000000000e+00
	0.000000000000000e+00
	8.293932196612929e-01
	9.327393928471657e-21
	-3.505732551207276e-18
	4.334646672883088e-17
	-3.864619367000524e-15
	-3.512075421916725e-18
	3.041250563643801e-21
	-3.119967095453631e-15
	0.000000000000000e+00
	0.000000000000000e+00
	0.000000000000000e+00
	0.000000000000000e+00
	0.000000000000000e+00
	1.658786439322586e-06
	0.000000000000000e+00
1		1.000000000000000e-06
	5.000000000000000e+00
	0.000000000000000e+00
	1.200000000000000e+00
	6.283143965558954e-03
	6.283143965558954e-03
	6.279051952931339e-02
	6.279051952931339e-02
	8.293932196612932e-01
	3.134370348904439e-06
	4.084907490490729e-06
	4.362619219742893e-02
	6.253967398998990e-02
	4.365123932512215e-06
	3.349381853866933e-06
	4.375768911939433e-02
	-3.044997160456391e-06
	-3.044997160456391e-06
	-1.499362236925176e-07
	-1.499602701509059e-07
	-1.658157584101642e-06
	8.048048398416231e-06
	0.000000000000000e+00
2		2.000000000000001e-06
	5.000000000000000e+00
	0.000000000000000e+00
	1.200000000000000e+00
	1.256603988335261e-02
	1.256603988335261e-02
	1.253332335643043e-01
	1.253332335643043e-01
	8.293932196612932e-01
	7.102504319740887e-06
	8.179541344823442e-06
	8.746961248523039e-02
	1.249358600970191e-01
	8.428085367120685e-06
	7.349896612393461e-06
	8.760045619973343e-02
	-2.901351718597858e-06
	-2.901351718597857e-06
	-1.493036738495631e-07
	-1.493036150976763e-07
	-1.658103740599066e-06
	7.759414467459644e-06
	0.000000000000000e+00
3		4.000000000000002e-06
	5.000000000000000e+00
	0.000000000000000e+00
	1.200000000000000e+00
	2.513009544333749e-02
	2.513009544333749e-02
	2.486898871648549e-01
	2.486898871648549e-01
	8.293932196612930e-01
	1.509686799677858e-05
	1.623526185803985e-05
	1.741079872052325e-01
	2.480138203716290e-01
	1.647507974593381e-05
	1.533562516334392e-05
	1.742373719667642e-01
	-2.646733362030349e-06
	-2.646733362030347e-06
	-1.481818090118508e-07
	-1.481817592881797e-07
	-1.658109332033028e-06
	7.247939624003482e-06
	0.000000000000000e+00
4		8.000000000000003e-06
	5.000000000000000e+00
	0.000000000000000e+00
	1.200000000000000e+00
	5.024431817976958e-02
	5.024431817976958e-02
	4.817536741017154e-01
	4.817536741017154e-01
	8.293932196612933e-01
	3.092880307767246e-05
	3.219855595574015e-05
	3.385606125283403e-01
	4.802934046669929e-01
	3.242178495187223e-05
	3.115103042248815e-05
	3.386856879823084e-01
	-2.207702939809489e-06
	-2.207702939809490e-06
	-1.465052833079238e-07
	-1.465051912841059e-07
	-1.658117843724142e-06
	6.366534198421108e-06
	0.000000000000000e+00
5		1.600000000000001e-05
	5.000000000000000e+00
	0.000000000000000e+00
	1.200000000000000e+00
	1.003617148512149e-01
	1.003617148512149e-01
	8.443279255020152e-01
	8.443279255020152e-01
	8.293932196612934e-01
	6.566920306625145e-05
	6.742630746454096e-05
	5.985071180125876e-01
	8.394623247283037e-01
	6.761955672499871e-05
	6.586158633256850e-05
	5.986193388296189e-01
	-1.244707407712044e-06
	-1.244707407712045e-06
	-1.435721267970836e-07
	-1.435719886257115e-07
	-1.658001106051013e-06
	4.434560037456407e-06
	0.000000000000000e+00
6		3.200000000000001e-05
	5.000000000000000e+00
	0.000000000000000e+00
	1.200000000000000e+00
	1.997099805144071e-01
	1.997099805144071e-01
	9.048270524660192e-01
	9.048270524660192e-01
	8.293932196612938e-01
	2.937990828228678e-04
	3.017724525037274e-04
	6.269640796504620e-01
	8.876266612461614e-01
	3.019159516921685e-04
	2.939419620462330e-04
	6.270578235499326e-01
	9.160058013636797e-07
	9.160058013636797e-07
	-1.396796220902129e-07
	-1.396795672697337e-07
	-1.655201857777805e-06
	1.025494454866006e-07
	0.000000000000000e+00
7		6.400000000000002e-05
	5.000000000000000e+00
	0.000000000000000e+00
	1.200000000000000e+00
	3.913736668372026e-01
	3.913736668372026e-01
	-7.705132427757899e-01
	-7.705132427757899e-01
	8.293932196612932e-01
	1.089033866691410e-02
	1.113019118973506e-02
	2.009054613773059e-02
	-3.133609602361672e-01
	1.113032887194724e-02
	1.089047460951202e-02
	2.009091273123396e-02
	4.220457506689060e-06
	4.220457506689060e-06
	-1.905305136080964e-07
	-1.905306191116821e-07
	-1.565933890679932e-06
	-6.493919990312947e-06
	0.000000000000000e+00
8		1.280000000000000e-04
	5.000000000000000e+00
	0.000000000000000e+00
	1.200000000000000e+00
	7.203090248879072e-01
	7.203090248879072e-01
	9.822872507286883e-01
	9.822872507286883e-01
	8.293932196612932e-01
	1.930231995368380e-01
	1.971276136133547e-01
	3.153542144876557e-01
	3.200037698317841e-01
	1.971275979795643e-01
	1.930231863400527e-01
	3.153542190197068e-01
	-4.450217727058063e-06
	-4.450217727058064e-06
	-1.255599236430045e-07
	-1.255596897477071e-07
	-8.849975968880556e-07
	1.003655266487535e-05
	0.000000000000000e+00
9		2.280000000000001e-04
	5.000000000000000e+00
	0.000000000000000e+00
	1.200000000000000e+00
	9.904614256966513e-01
	9.904614256966513e-01
	9.822872507286873e-01
	9.822872507286873e-01
	8.293932196612931e-01
	2.249261116825957e-01
	2.275710528062447e-01
	2.294190143333458e-01
	2.293994357753492e-01
	2.275710484407899e-01
	2.249261067951214e-01
	2.294190126088412e-01
	7.841569906543324e-07
	7.841569906543324e-07
	-2.574535936078099e-07
	-2.574536851936518e-07
	-1.870582888276879e-06
	8.171761857092998e-07
	0.000000000000000e+00
10		3.280000000000002e-04
	5.000000000000000e+00
	0.000000000000000e+00
	1.200000000000000e+00
	8.822912264349528e-01
	8.822912264349528e-01
	9.822872507286867e-01
	9.822872507286867e-01
	8.293932196612932e-01
	1.353932020403956e-01
	1.364412267984265e-01
	1.378098712499863e-01
	1.382985698117216e-01
	1.364412258856197e-01
	1.353932011161898e-01
	1.378098712859869e-01
	-1.578144275573813e-07
	-1.578144275573813e-07
	1.301319505890944e-07
	1.301319494824647e-07
	-1.914641199885728e-06
	1.970006155010325e-06
	0.000000000000000e+00
11		4.280000000000002e-04
	5.000000000000000e+00
	0.000000000000000e+00
	1.200000000000000e+00
	4.371157666509317e-01
	4.371157666509317e-01
	9.822872507286867e-01
	9.822872507286867e-01
	8.293932196612932e-01
	2.001715019229725e-02
	1.987225672383968e-02
	2.935614661050188e-02
	2.977413427230695e-02
	1.987225678534499e-02
	2.001715025420595e-02
	2.935614661348459e-02
	-1.983117555103963e-07
	-1.983117555103963e-07
	3.996755173607306e-07
	3.996755178150508e-07
	-1.876975073537653e-06
	1.474247550490880e-06
	0.000000000000000e+00
12		5.280000000000003e-04
	5.000000000000000e+00
	0.000000000000000e+00
	1.200000000000000e+00
	-1.750230589752774e-01
	-1.750230589752774e-01
	9.822872507286855e-01
	9.822872507286855e-01
	8.293932196612932e-01
	1.026155457771092e-03
	1.108636033823952e-03
	4.118940436239700e-03
	4.066223704922286e-03
	1.108636246232296e-03
	1.026155668886047e-03
	4.118940436649538e-03
	2.719566763379957e-08
	2.719566763379957e-08
	1.147990467643588e-07
	1.147990470153010e-07
	-1.608529289664429e-06
	1.324539860459602e-06
	0.000000000000000e+00
13		6.280000000000003e-04
	5.000000000000000e+00
	0.000000000000000e+00
	1.200000000000000e+00
	-7.203090248879082e-01
	-7.203090248879082e-01
	9.822872507286855e-01
	9.822872507286855e-01
	8.293932196612932e-01
	-2.610566824862879e-04
	-2.447677303393934e-04
	-2.055753858146533e-03
	-2.067422249232329e-03
	-2.447676127190632e-04
	-2.610565653819335e-04
	-2.055753858167736e-03
	5.932444864773246e-09
	5.932444864772399e-09
	1.889470907456101e-07
	1.889470907341190e-07
	-1.646147519932320e-06
	1.256388448806527e-06
	0.000000000000000e+00
14		7.280000000000003e-04
	5.000000000000000e+00
	0.000000000000000e+00
	1.200000000000000e+00
	-9.904614256966515e-01
	-9.904614256966515e-01
	9.822872507286842e-01
	9.822872507286842e-01
	8.293932196612932e-01
	-3.404389867613003e-04
	-3.422764724480213e-04
	-4.140304458187385e-03
	-4.139910114328128e-03
	-3.422764332366157e-04
	-3.404389477239227e-04
	-4.140304458192432e-03
	-6.827486767667072e-11
	-6.827486767624761e-11
	9.969205136451517e-08
	9.969205136455739e-08
	-1.657892879109060e-06
	1.458645326748360e-06
	0.000000000000000e+00
15		8.280000000000004e-04
	5.000000000000000e+00
	0.000000000000000e+00
	1.200000000000000e+00
	-8.822912264349523e-01
	-8.822912264349523e-01
	9.822872507286829e-01
	9.822872507286829e-01
	8.293932196612932e-01
	-1.113175827304556e-04
	-1.113552557491474e-04
	-4.769759156845448e-03
	-4.770034646271118e-03
	-1.113552498096201e-04
	-1.113175768162061e-04
	-4.769759156845779e-03
	1.601631430665661e-10
	1.601631430657199e-10
	-2.288713487505509e-07
	-2.288713487505436e-07
	-1.658127084615596e-06
	2.115549456944000e-06
	0.000000000000000e+00
16		9.280000000000004e-04
	5.000000000000000e+00
	0.000000000000000e+00
	1.200000000000000e+00
	-4.371157666509302e-01
	-4.371157666509302e-01
	9.822872507286829e-01
	9.822872507286829e-01
	8.293932196612932e-01
	1.022846069062505e-04
	1.037260933681730e-04
	-4.849042226088085e-03
	-4.849692810577130e-03
	1.037260910245512e-04
	1.022846045731227e-04
	-4.849042226087542e-03
	3.318037989899525e-10
	3.318037989899525e-10
	-2.860726607635001e-07
	-2.860726607635032e-07
	-1.658436682596442e-06
	2.229918397242211e-06
	0.000000000000000e+00
17		1.028000000000000e-03
	5.000000000000000e+00
	0.000000000000000e+00
	1.200000000000000e+00
	1.750230589752790e-01
	1.750230589752790e-01
	9.822872507286831e-01
	9.822872507286831e-01
	8.293932196612932e-01
	1.755039910237745e-04
	1.770950097308648e-04
	-4.629715063035361e-03
	-4.630939499109434e-03
	1.770950074360029e-04
	1.755039887389689e-04
	-4.629715063035654e-03
	6.244374021441551e-10
	6.244374021441551e-10
	-1.514662782230248e-07
	-1.514662782230232e-07
	-1.658781727391389e-06
	1.960465410045523e-06
	0.000000000000000e+00
18		1.128000000000001e-03
	5.000000000000000e+00
	0.000000000000000e+00
	1.200000000000000e+00
	7.203090248879089e-01
	7.203090248879089e-01
	9.822872507286844e-01
	9.822872507286844e-01
	8.293932196612932e-01
	4.723294318357982e-02
	4.788416405934019e-02
	4.787817698098489e-02
	4.758466809716609e-02
	4.788416405928247e-02
	4.723294318351328e-02
	4.787817698096814e-02
	1.328774774752993e-07
	1.328774774752993e-07
	-3.546185656521512e-07
	-3.546185656521134e-07
	-1.538471308010814e-06
	1.981953484886933e-06
	0.000000000000000e+00
19		1.228000000000001e-03
	5.000000000000000e+00
	0.000000000000000e+00
	1.200000000000000e+00
	9.904614256966517e-01
	9.904614256966517e-01
	9.822872507286805e-01
	9.822872507286805e-01
	8.293932196612932e-01
	7.128734151588859e-02
	7.202143855594186e-02
	7.374492807892037e-02
	7.373402148425327e-02
	7.202143855661010e-02
	7.128734151654459e-02
	7.374492807893444e-02
	2.177150506593751e-08
	2.177150506593751e-08
	-1.663540822411994e-07
	-1.663540822417257e-07
	-1.637681179607567e-06
	1.926846335047409e-06
	0.000000000000000e+00
20		1.328000000000001e-03
	5.000000000000000e+00
	0.000000000000000e+00
	1.200000000000000e+00
	8.822912264349519e-01
	8.822912264349519e-01
	9.822872507286818e-01
	9.822872507286818e-01
	8.293932196612932e-01
	3.304118683290419e-02
	3.317177942111950e-02
	3.376811470940903e-02
	3.403026339352067e-02
	3.317177942111815e-02
	3.304118683290285e-02
	3.376811470940946e-02
	-1.233142934646174e-07
	-1.233142934646174e-07
	1.911433412723395e-07
	1.911433412729684e-07
	-1.777122331922375e-06
	1.641464237630845e-06
	0.000000000000000e+00
21		1.428000000000001e-03
	5.000000000000000e+00
	0.000000000000000e+00
	1.200000000000000e+00
	4.371157666509303e-01
	4.371157666509303e-01
	9.822872507286805e-01
	9.822872507286805e-01
	8.293932196612932e-01
	-4.374669981969800e-02
	-4.434283723962679e-02
	-4.395216797034920e-02
	-4.365635426529001e-02
	-4.434283723959817e-02
	-4.374669981966995e-02
	-4.395216797034197e-02
	-1.640616829389100e-07
	-1.640616829389100e-07
	4.365086278420273e-07
	4.365086278418552e-07
	-1.822565894108912e-06
	1.277672005043975e-06
	0.000000000000000e+00
22		1.528000000000001e-03
	5.000000000000000e+00
	0.000000000000000e+00
	1.200000000000000e+00
	-1.750230589752806e-01
	-1.750230589752806e-01
	9.822872507286819e-01
	9.822872507286819e-01
	8.293932196612932e-01
	-3.159130421407632e-02
	-3.185641255079381e-02
	-6.962227191752546e-02
	-6.959466930278776e-02
	-3.185641255101383e-02
	-3.159130421429578e-02
	-6.962227191752246e-02
	1.875078508140823e-10
	1.875078508140823e-10
	1.670137841835200e-07
	1.670137841835749e-07
	-1.560953487823230e-06
	1.226550903839653e-06
	0.000000000000000e+00
23		1.628000000000001e-03
	5.000000000000000e+00
	0.000000000000000e+00
	1.200000000000000e+00
	-7.203090248879102e-01
	-7.203090248879102e-01
	9.822872507286806e-01
	9.822872507286806e-01
	8.293932196612932e-01
	-6.068635594285479e-03
	-6.042258884178827e-03
	-7.093943579514286e-02
	-7.097925001268730e-02
	-6.042258884362679e-03
	-6.068635594468630e-03
	-7.093943579514747e-02
	1.861287365998124e-08
	1.861287365998124e-08
	1.625465454478425e-07
	1.625465454478350e-07
	-1.603838000427428e-06
	1.241519162989711e-06
	0.000000000000000e+00
24		1.728000000000001e-03
	5.000000000000000e+00
	0.000000000000000e+00
	1.200000000000000e+00
	-9.904614256966519e-01
	-9.904614256966519e-01
	9.822872507286794e-01
	9.822872507286794e-01
	8.293932196612932e-01
	1.090851045274562e-03
	1.095572761015164e-03
	-7.143420907946738e-02
	-7.143408643357833e-02
	1.095572760936642e-03
	1.090851045196472e-03
	-7.143420907947132e-02
	-5.962060372036395e-11
	-5.962060371992720e-11
	1.240396371915099e-07
	1.240396371915096e-07
	-1.662414800911689e-06
	1.414454768423177e-06
	0.000000000000000e+00
25		1.828000000000001e-03
	5.000000000000000e+00
	0.000000000000000e+00
	1.200000000000000e+00
	-8.822912264349503e-01
	-8.822912264349503e-01
	9.822872507286807e-01
	9.822872507286807e-01
	8.293932196612932e-01
	1.634303019707819e-03
	1.642428279227743e-03
	-7.152877105636229e-02
	-7.152901974411639e-02
	1.642428279207544e-03
	1.634303019687628e-03
	-7.152877105636837e-02
	1.618650619233081e-10
	1.618650619224810e-10
	-2.288506139041016e-07
	-2.288506139041010e-07
	-1.663458761820103e-06
	2.120836260379054e-06
	0.000000000000000e+00
26		1.928000000000001e-03
	5.000000000000000e+00
	0.000000000000000e+00
	1.200000000000000e+00
	-4.371157666509288e-01
	-4.371157666509288e-01
	9.822872507286794e-01
	9.822872507286794e-01
	8.293932196612932e-01
	9.448993165956527e-04
	9.501406561770465e-04
	-7.142712870332228e-02
	-7.142769914096128e-02
	9.501406561688113e-04
	9.448993165874701e-04
	-7.142712870331704e-02
	3.410663251242769e-10
	3.410663251246871e-10
	-2.838014755008994e-07
	-2.838014755009010e-07
	-1.661003738557337e-06
	2.227924557776758e-06
	0.000000000000000e+00
27		2.028000000000001e-03
	5.000000000000000e+00
	0.000000000000000e+00
	1.200000000000000e+00
	1.750230589752840e-01
	1.750230589752840e-01
	9.822872507286755e-01
	9.822872507286755e-01
	8.293932196612932e-01
	-1.762693022208596e-03
	-1.787993017219901e-03
	-6.831850134091257e-02
	-6.833170378559686e-02
	-1.787993017227375e-03
	-1.762693022216005e-03
	-6.831850134091143e-02
	7.864141181064012e-09
	7.864141181064012e-09
	-1.521068296193197e-07
	-1.521068296193187e-07
	-1.665119403800160e-06
	1.953604781363671e-06
	0.000000000000000e+00
28		2.128000000000001e-03
	5.000000000000000e+00
	0.000000000000000e+00
	1.200000000000000e+00
	7.203090248879125e-01
	7.203090248879125e-01
	9.822872507286715e-01
	9.822872507286715e-01
	8.293932196612932e-01
	2.332086511162790e-02
	2.363955260257720e-02
	2.235429446188642e-02
	2.188613013014709e-02
	2.363955260257592e-02
	2.332086511162659e-02
	2.235429446188519e-02
	2.279531315412701e-07
	2.279531315412701e-07
	-3.833936306599881e-07
	-3.833936306599867e-07
	-1.592311770397819e-06
	1.903192769184659e-06
	0.000000000000000e+00
29		2.228000000000002e-03
	5.000000000000000e+00
	0.000000000000000e+00
	1.200000000000000e+00
	9.904614256966525e-01
	9.904614256966525e-01
	9.822872507286703e-01
	9.822872507286703e-01
	8.293932196612932e-01
	5.459105746743096e-02
	5.522082410501451e-02
	5.567206923724248e-02
	5.565103666719336e-02
	5.522082410501159e-02
	5.459105746742764e-02
	5.567206923723956e-02
	8.416472997003094e-09
	8.416472997003081e-09
	-1.468506101483284e-07
	-1.468506101483270e-07
	-1.600330828965683e-06
	1.877199104328819e-06
	0.000000000000000e+00
30		2.328000000000002e-03
	5.000000000000000e+00
	0.000000000000000e+00
	1.200000000000000e+00
	8.822912264349478e-01
	8.822912264349478e-01
	9.822872507286690e-01
	9.822872507286690e-01
	8.293932196612932e-01
	2.163287360912693e-02
	2.166528064497625e-02
	2.212260523568753e-02
	2.235766078473642e-02
	2.166528064498435e-02
	2.163287360913523e-02
	2.212260523569107e-02
	-1.133842179949203e-07
	-1.133842179949207e-07
	1.953492987003077e-07
	1.953492987002953e-07
	-1.769879464860143e-06
	1.605949303853280e-06
	0.000000000000000e+00
31		2.428000000000002e-03
	5.000000000000000e+00
	0.000000000000000e+00
	1.200000000000000e+00
	4.371157666509209e-01
	4.371157666509209e-01
	9.822872507286624e-01
	9.822872507286624e-01
	8.293932196612932e-01
	-5.123347151009729e-02
	-5.188325880725243e-02
	-5.153241265873360e-02
	-5.126696876812669e-02
	-5.188325880723522e-02
	-5.123347151007882e-02
	-5.153241265872589e-02
	-1.590304675065363e-07
	-1.590304675065363e-07
	4.404494334658833e-07
	4.404494334658776e-07
	-1.816895477175059e-06
	1.254057545780933e-06
	0.000000000000000e+00
32		2.528000000000002e-03
	5.000000000000000e+00
	0.000000000000000e+00
	1.200000000000000e+00
	-1.750230589752891e-01
	-1.750230589752891e-01
	9.822872507286611e-01
	9.822872507286611e-01
	8.293932196612932e-01
	-3.573800533913052e-02
	-3.602704654371851e-02
	-7.731156134202939e-02
	-7.728352809419924e-02
	-3.602704654370508e-02
	-3.573800533911550e-02
	-7.731156134203154e-02
	-3.558584003558014e-09
	-3.558584003558430e-09
	1.743136655592777e-07
	1.743136655592978e-07
	-1.555687378298884e-06
	1.214177216392574e-06
	0.000000000000000e+00
33		2.628000000000003e-03
	5.000000000000000e+00
	0.000000000000000e+00
	1.200000000000000e+00
	-7.203090248879186e-01
	-7.203090248879186e-01
	9.822872507286597e-01
	9.822872507286597e-01
	8.293932196612932e-01
	-6.902022562030658e-03
	-6.874876834887473e-03
	-7.803415346435544e-02
	-7.807481693074457e-02
	-6.874876834881955e-03
	-6.902022562025037e-03
	-7.803415346436342e-02
	2.023230529822719e-08
	2.023230529822719e-08
	1.594264009247022e-07
	1.594264009246970e-07
	-1.598205805372296e-06
	1.238888393843525e-06
	0.000000000000000e+00
34		2.728000000000003e-03
	5.000000000000000e+00
	0.000000000000000e+00
	1.200000000000000e+00
	-9.904614256966535e-01
	-9.904614256966535e-01
	9.822872507286532e-01
	9.822872507286532e-01
	8.293932196612932e-01
	1.210916250004279e-03
	1.216181890611409e-03
	-7.833110847974670e-02
	-7.833098743415012e-02
	1.216181890612940e-03
	1.210916250005801e-03
	-7.833110847974449e-02
	-5.883008866806352e-11
	-5.883008866764662e-11
	1.237911318763293e-07
	1.237911318763280e-07
	-1.662822607264482e-06
	1.415358004098601e-06
	0.000000000000000e+00
35		2.828000000000003e-03
	5.000000000000000e+00
	0.000000000000000e+00
	1.200000000000000e+00
	-8.822912264349437e-01
	-8.822912264349437e-01
	9.822872507286519e-01
	9.822872507286519e-01
	8.293932196612932e-01
	1.832762402606815e-03
	1.841829252459277e-03
	-7.835945117480955e-02
	-7.835970614138048e-02
	1.841829252458590e-03
	1.832762402606146e-03
	-7.835945117480411e-02
	1.622907951611375e-10
	1.622907951611639e-10
	-2.288461604940970e-07
	-2.288461604940968e-07
	-1.664067194382474e-06
	2.121434934439763e-06
	0.000000000000000e+00
36		2.928000000000004e-03
	5.000000000000000e+00
	0.000000000000000e+00
	1.200000000000000e+00
	-4.371157666509146e-01
	-4.371157666509146e-01
	9.822872507286453e-01
	9.822872507286453e-01
	8.293932196612932e-01
	1.047151880693943e-03
	1.052852870904208e-03
	-7.823543572617163e-02
	-7.823599927730368e-02
	1.052852870903718e-03
	1.047151880693459e-03
	-7.823543572617474e-02
	3.420725840089484e-10
	3.420725840089219e-10
	-2.833747777906991e-07
	-2.833747777906973e-07
	-1.661315393739166e-06
	2.227380805036041e-06
	0.000000000000000e+00
37		3.028000000000004e-03
	5.000000000000000e+00
	0.000000000000000e+00
	1.200000000000000e+00
	1.750230589752960e-01
	1.750230589752960e-01
	9.822872507286493e-01
	9.822872507286493e-01
	8.293932196612932e-01
	-2.217497945934778e-03
	-2.248890109636227e-03
	-7.446944292848665e-02
	-7.448521815225986e-02
	-2.248890109636500e-03
	-2.217497945935049e-03
	-7.446944292848869e-02
	9.532515392865492e-09
	9.532515392865492e-09
	-1.522789582859744e-07
	-1.522789582859745e-07
	-1.666461368077115e-06
	1.951954254590541e-06
	0.000000000000000e+00
38		3.128000000000004e-03
	5.000000000000000e+00
	0.000000000000000e+00
	1.200000000000000e+00
	7.203090248879234e-01
	7.203090248879234e-01
	9.822872507286428e-01
	9.822872507286428e-01
	8.293932196612932e-01
	2.096677204023167e-02
	2.125538283936917e-02
	1.987004827207037e-02
	1.938722172337893e-02
	2.125538283937035e-02
	2.096677204023288e-02
	1.987004827207116e-02
	2.368272972727400e-07
	2.368272972727404e-07
	-3.858809131873919e-07
	-3.858809131873932e-07
	-1.596691722540772e-06
	1.894798955202775e-06
	0.000000000000000e+00
39		3.228000000000004e-03
	5.000000000000000e+00
	0.000000000000000e+00
	1.200000000000000e+00
	9.904614256966550e-01
	9.904614256966550e-01
	9.822872507286361e-01
	9.822872507286361e-01
	8.293932196612932e-01
	5.290382027092365e-02
	5.352034028750152e-02
	5.396824164815456e-02
	5.394927661853429e-02
	5.352034028749273e-02
	5.290382027091457e-02
	5.396824164814533e-02
	7.276612372534667e-09
	7.276612372534244e-09
	-1.450531834270308e-07
	-1.450531834270179e-07
	-1.596997276920987e-06
	1.872550419696399e-06
	0.000000000000000e+00
40		3.328000000000005e-03
	5.000000000000000e+00
	0.000000000000000e+00
	1.200000000000000e+00
	8.822912264349404e-01
	8.822912264349404e-01
	9.822872507286401e-01
	9.822872507286401e-01
	8.293932196612932e-01
	2.053578638230576e-02
	2.055930183335803e-02
	2.100508365237928e-02
	2.123789663839622e-02
	2.055930183336485e-02
	2.053578638231486e-02
	2.100508365238209e-02
	-1.125682462948612e-07
	-1.125682462948612e-07
	1.957879080604559e-07
	1.957879080604341e-07
	-1.768947259491496e-06
	1.602507935882558e-06
	0.000000000000000e+00
41		3.428000000000005e-03
	5.000000000000000e+00
	0.000000000000000e+00
	1.200000000000000e+00
	4.371157666509052e-01
	4.371157666509052e-01
	9.822872507286282e-01
	9.822872507286282e-01
	8.293932196612932e-01
	-5.193051778276290e-02
	-5.258478754948765e-02
	-5.225710936827947e-02
	-5.199260811910811e-02
	-5.258478754944890e-02
	-5.193051778272299e-02
	-5.225710936827375e-02
	-1.585358453071303e-07
	-1.585358453071311e-07
	4.407018649999519e-07
	4.407018649999339e-07
	-1.816385552617522e-06
	1.252053513430114e-06
	0.000000000000000e+00
42		3.528000000000005e-03
	5.000000000000000e+00
	0.000000000000000e+00
	1.200000000000000e+00
	-1.750230589753064e-01
	-1.750230589753064e-01
	9.822872507286322e-01
	9.822872507286322e-01
	8.293932196612932e-01
	-3.611793233706662e-02
	-3.640905256665349e-02
	-7.804229071793492e-02
	-7.801392260133527e-02
	-3.640905256662122e-02
	-3.611793233703527e-02
	-7.804229071793699e-02
	-3.910966051955833e-09
	-3.910966051956667e-09
	1.749961454810410e-07
	1.749961454810821e-07
	-1.555211185860338e-06
	1.213040827461515e-06
	0.000000000000000e+00
43		3.628000000000005e-03
	5.000000000000000e+00
	0.000000000000000e+00
	1.200000000000000e+00
	-7.203090248879307e-01
	-7.203090248879307e-01
	9.822872507286310e-01
	9.822872507286310e-01
	8.293932196612932e-01
	-6.975010886875300e-03
	-6.947770760319171e-03
	-7.870711018453827e-02
	-7.874790651499539e-02
	-6.947770760308008e-03
	-6.975010886864795e-03
	-7.870711018453913e-02
	2.038606836252213e-08
	2.038606836252257e-08
	1.591310324402448e-07
	1.591310324402339e-07
	-1.597690609097398e-06
	1.238656407515478e-06
	0.000000000000000e+00
44		3.728000000000006e-03
	5.000000000000000e+00
	0.000000000000000e+00
	1.200000000000000e+00
	-9.904614256966560e-01
	-9.904614256966560e-01
	9.822872507286243e-01
	9.822872507286243e-01
	8.293932196612932e-01
	1.223925785361209e-03
	1.229250373376026e-03
	-7.898492796880489e-02
	-7.898480707419905e-02
	1.229250373377217e-03
	1.223925785362387e-03
	-7.898492796880928e-02
	-5.876038025244968e-11
	-5.876038025244968e-11
	1.237666101239905e-07
	1.237666101239912e-07
	-1.662866334569746e-06
	1.415450636218497e-06
	0.000000000000000e+00
45		3.828000000000006e-03
	5.000000000000000e+00
	0.000000000000000e+00
	1.200000000000000e+00
	-8.822912264349354e-01
	-8.822912264349354e-01
	9.822872507286231e-01
	9.822872507286231e-01
	8.293932196612932e-01
	1.851650711121455e-03
	1.860807248631831e-03
	-7.900685697937995e-02
	-7.900711255046365e-02
	1.860807248630980e-03
	1.851650711120616e-03
	-7.900685697937485e-02
	1.623280287351200e-10
	1.623280287351200e-10
	-2.288457239603610e-07
	-2.288457239603630e-07
	-1.664125104394244e-06
	2.121491896568945e-06
	0.000000000000000e+00
46		3.928000000000006e-03
	5.000000000000000e+00
	0.000000000000000e+00
	1.200000000000000e+00
	-4.371157666508989e-01
	-4.371157666508989e-01
	9.822872507286218e-01
	9.822872507286218e-01
	8.293932196612932e-01
	1.056643494446273e-03
	1.062387154041870e-03
	-7.888067423111859e-02
	-7.888123714035102e-02
	1.062387154041681e-03
	1.056643494446084e-03
	-7.888067423111737e-02
	3.421700608160841e-10
	3.421700608165209e-10
	-2.833326721945022e-07
	-2.833326721945008e-07
	-1.661344323370478e-06
	2.227325329184254e-06
	0.000000000000000e+00
47		4.028000000000006e-03
	5.000000000000000e+00
	0.000000000000000e+00
	1.200000000000000e+00
	1.750230589753168e-01
	1.750230589753168e-01
	9.822872507286152e-01
	9.822872507286152e-01
	8.293932196612932e-01
	-2.264784914807199e-03
	-2.296806848684474e-03
	-7.504677725738473e-02
	-7.506281637996272e-02
	-2.296806848677856e-03
	-2.264784914800665e-03
	-7.504677725738375e-02
	9.705034598671900e-09
	9.705034598671053e-09
	-1.522969795491361e-07
	-1.522969795491357e-07
	-1.666598501872186e-06
	1.951782392806450e-06
	0.000000000000000e+00
48		4.128000000000007e-03
	5.000000000000000e+00
	0.000000000000000e+00
	1.200000000000000e+00
	7.203090248879331e-01
	7.203090248879331e-01
	9.822872507286139e-01
	9.822872507286139e-01
	8.293932196612932e-01
	2.074495597456797e-02
	2.103076760554345e-02
	1.963629084947448e-02
	1.915211288867386e-02
	2.103076760554492e-02
	2.074495597456955e-02
	1.963629084947598e-02
	2.376539670254223e-07
	2.376539670254223e-07
	-3.861109043296758e-07
	-3.861109043296778e-07
	-1.597089377983694e-06
	1.894003253811256e-06
	0.000000000000000e+00
49		4.228000000000007e-03
	5.000000000000000e+00
	0.000000000000000e+00
	1.200000000000000e+00
	9.904614256966570e-01
	9.904614256966570e-01
	9.822872507286072e-01
	9.822872507286072e-01
	8.293932196612932e-01
	5.274510518962999e-02
	5.336037825717705e-02
	5.380794817478221e-02
	5.378917170125359e-02
	5.336037825718323e-02
	5.274510518963640e-02
	5.380794817478938e-02
	7.170439851381384e-09
	7.170439851381384e-09
	-1.448850263413437e-07
	-1.448850263413498e-07
	-1.596686330816200e-06
	1.872115504407675e-06
	0.000000000000000e+00
50		4.328000000000007e-03
	5.000000000000000e+00
	0.000000000000000e+00
	1.200000000000000e+00
	8.822912264349322e-01
	8.822912264349322e-01
	9.822872507286007e-01
	9.822872507286007e-01
	8.293932196612932e-01
	2.043261132920121e-02
	2.045529186559140e-02
	2.089999071461461e-02
	2.113259314895345e-02
	2.045529186559365e-02
	2.043261132920351e-02
	2.089999071461677e-02
	-1.124913875758648e-07
	-1.124913875758648e-07
	1.958291375168880e-07
	1.958291375168956e-07
	-1.768859801063558e-06
	1.602184301952566e-06
	0.000000000000000e+00
51		4.428000000000007e-03
	5.000000000000000e+00
	0.000000000000000e+00
	1.200000000000000e+00
	4.371157666508926e-01
	4.371157666508926e-01
	9.822872507286047e-01
	9.822872507286047e-01
	8.293932196612932e-01
	-5.199607363923496e-02
	-5.265076477294711e-02
	-5.232524364855894e-02
	-5.206083127507695e-02
	-5.265076477294987e-02
	-5.199607363923787e-02
	-5.232524364856239e-02
	-1.584893512109782e-07
	-1.584893512109786e-07
	4.407255854765978e-07
	4.407255854766029e-07
	-1.816337645566825e-06
	1.251865177110538e-06
	0.000000000000000e+00
52		4.528000000000008e-03
	5.000000000000000e+00
	0.000000000000000e+00
	1.200000000000000e+00
	-1.750230589753201e-01
	-1.750230589753201e-01
	9.822872507285981e-01
	9.822872507285981e-01
	8.293932196612932e-01
	-3.615366910708247e-02
	-3.644498497024312e-02
	-7.811097982785874e-02
	-7.808258031645550e-02
	-3.644498497024640e-02
	-3.615366910708608e-02
	-7.811097982785802e-02
	-3.944080262831463e-09
	-3.944080262831039e-09
	1.750603730867970e-07
	1.750603730867907e-07
	-1.555166403730332e-06
	1.212933818632305e-06
	0.000000000000000e+00
53		4.628000000000008e-03
	5.000000000000000e+00
	0.000000000000000e+00
	1.200000000000000e+00
	-7.203090248879405e-01
	-7.203090248879405e-01
	9.822872507286021e-01
	9.822872507286021e-01
	8.293932196612932e-01
	-6.981877265429533e-03
	-6.954628269469110e-03
	-7.877035960743425e-02
	-7.881116840717439e-02
	-6.954628269470518e-03
	-6.981877265430876e-03
	-7.877035960742021e-02
	2.040053557630162e-08
	2.040053557630207e-08
	1.591032437091302e-07
	1.591032437091297e-07
	-1.597642140473971e-06
	1.238634583086639e-06
	0.000000000000000e+00
54		4.728000000000008e-03
	5.000000000000000e+00
	0.000000000000000e+00
	1.200000000000000e+00
	-9.904614256966584e-01
	-9.904614256966584e-01
	9.822872507285956e-01
	9.822872507285956e-01