Title: kicad schematic
Date: Fri Dec 26 13:42:54  2025
Plotname: Transient Analysis
Flags: real
No. Variables: 50
No. Points: 108     
Variables:
	0	time	time
	1	v(y)	voltage
	2	v(e)	voltage
	3	v(z)	voltage
	4	v(net-_x1-pad14_)	voltage
	5	v(x1.x2.net-_m3-pad2_)	voltage
	6	v(x1.x2.net-_m1-pad3_)	voltage
	7	v(x1.x2.net-_m1-pad4_)	voltage
	8	v(x1.x2.net-_m5-pad2_)	voltage
	9	v(x1.x2.net-_m1-pad2_)	voltage
	10	v(unconnected-_x1-pad11_)	voltage
	11	v(x1.x4.net-_m3-pad2_)	voltage
	12	v(unconnected-_x1-pad10_)	voltage
	13	v(x1.x4.net-_m1-pad3_)	voltage
	14	v(x1.x4.net-_m1-pad4_)	voltage
	15	v(x1.x4.net-_m5-pad2_)	voltage
	16	v(x1.x4.net-_m1-pad2_)	voltage
	17	v(unconnected-_x1-pad8_)	voltage
	18	v(x1.x3.net-_m3-pad2_)	voltage
	19	v(unconnected-_x1-pad9_)	voltage
	20	v(x1.x3.net-_m1-pad3_)	voltage
	21	v(x1.x3.net-_m1-pad4_)	voltage
	22	v(x1.x3.net-_m5-pad2_)	voltage
	23	v(x1.x3.net-_m1-pad2_)	voltage
	24	v(unconnected-_x1-pad1_)	voltage
	25	v(x1.x1.net-_m3-pad2_)	voltage
	26	v(unconnected-_x1-pad2_)	voltage
	27	v(x1.x1.net-_m1-pad3_)	voltage
	28	v(x1.x1.net-_m1-pad4_)	voltage
	29	v(x1.x1.net-_m5-pad2_)	voltage
	30	v(x1.x1.net-_m1-pad2_)	voltage
	31	i(v.x1.v.x1.v1)	current
	32	i(v.x1.v.x3.v1)	current
	33	i(v.x1.v.x4.v1)	current
	34	i(v.x1.v.x2.v1)	current
	35	i(v1)	current
	36	i(v_e1)	current
	37	i(v_y1)	current
	38	i(a.x1.a.x1.a4)	current
	39	i(a.x1.a.x1.a2)	current
	40	i(a.x1.a.x1.a1)	current
	41	i(a.x1.a.x3.a4)	current
	42	i(a.x1.a.x3.a2)	current
	43	i(a.x1.a.x3.a1)	current
	44	i(a.x1.a.x4.a4)	current
	45	i(a.x1.a.x4.a2)	current
	46	i(a.x1.a.x4.a1)	current
	47	i(a.x1.a.x2.a4)	current
	48	i(a.x1.a.x2.a2)	current
	49	i(a.x1.a.x2.a1)	current
Values:
0		0.000000000000000e+00
	5.000000000000000e+00
	5.000000000000000e+00
	4.123930747660011e+00
	5.000000000000000e+00
	5.000000000000000e+00
	4.701631367215101e+00
	5.000000000000000e+00
	0.000000000000000e+00
	0.000000000000000e+00
	1.781352460945922e-01
	0.000000000000000e+00
	2.493541707181028e+00
	4.971405898439802e-08
	5.000000000000000e+00
	5.000000000000000e+00
	5.000000000000000e+00
	1.781352041552606e-01
	0.000000000000000e+00
	2.493541696733764e+00
	4.971405953751196e-08
	5.000000000000000e+00
	5.000000000000000e+00
	5.000000000000000e+00
	1.781366159792901e-01
	0.000000000000000e+00
	2.493507432771406e+00
	4.971396897038938e-08
	5.000000000000000e+00
	5.000000000000000e+00
	5.000000000000000e+00
	-1.719021928542196e-11
	-1.719018784510757e-11
	-1.719018775078164e-11
	-1.194934441524349e-12
	0.000000000000000e+00
	0.000000000000000e+00
	-2.061965503211693e-04
	0.000000000000000e+00
	0.000000000000000e+00
	0.000000000000000e+00
	0.000000000000000e+00
	0.000000000000000e+00
	0.000000000000000e+00
	0.000000000000000e+00
	0.000000000000000e+00
	0.000000000000000e+00
	0.000000000000000e+00
	0.000000000000000e+00
	0.000000000000000e+00
1		1.000000000000000e-02
	5.000000000000000e+00
	5.000000000000000e+00
	4.124670652933339e+00
	5.000000000000000e+00
	5.000000000000000e+00
	4.699764078672403e+00
	5.000000000000000e+00
	0.000000000000000e+00
	0.000000000000000e+00
	1.781350595269061e-01
	0.000000000000000e+00
	2.493548751933278e+00
	4.971407982896679e-08
	5.000000000000000e+00
	5.000000000000000e+00
	5.000000000000000e+00
	1.781350351083729e-01
	0.000000000000000e+00
	2.493548742084281e+00
	4.971407695143574e-08
	5.000000000000000e+00
	5.000000000000000e+00
	5.000000000000000e+00
	1.781361775762435e-01
	0.000000000000000e+00
	2.493509974966329e+00
	4.971397414322691e-08
	5.000000000000000e+00
	5.000000000000000e+00
	5.000000000000000e+00
	-1.719021780483031e-11
	-1.719018176411798e-11
	-1.719018170347488e-11
	-3.774272594939278e-12
	0.000000000000000e+00
	0.000000000000000e+00
	-2.062335387121861e-04
	-2.818245938036878e-18
	1.352727266311449e-17
	1.175350882143343e-17
	-1.086640444860750e-18
	4.409860924020499e-17
	4.746804124670820e-17
	-1.199259045379140e-18
	4.398405549870725e-17
	4.721431372353889e-17
	-7.543990573459035e-12
	2.703946794884422e-12
	5.484516074669968e-13
2		2.000000000000000e-02
	5.000000000000000e+00
	5.000000000000000e+00
	4.124675835506038e+00
	5.000000000000000e+00
	5.000000000000000e+00
	4.699750908542753e+00
	5.000000000000000e+00
	0.000000000000000e+00
	0.000000000000000e+00
	1.781349586774500e-01
	0.000000000000000e+00
	2.493554878595049e+00
	4.971409497010249e-08
	5.000000000000000e+00
	5.000000000000000e+00
	5.000000000000000e+00
	1.781349437375689e-01
	0.000000000000000e+00
	2.493554869558176e+00
	4.971409395200120e-08
	5.000000000000000e+00
	5.000000000000000e+00
	5.000000000000000e+00
	1.781359404328240e-01
	0.000000000000000e+00
	2.493512179672241e+00
	4.971397697092309e-08
	5.000000000000000e+00
	5.000000000000000e+00
	5.000000000000000e+00
	-1.719021606547736e-11
	-1.719017574388085e-11
	-1.719017570385291e-11
	-1.214944972719835e-12
	0.000000000000000e+00
	0.000000000000000e+00
	-2.062338046789902e-04
	-1.524465648164660e-18
	1.263549311243667e-17
	1.223043081068408e-17
	-5.872851139217417e-19
	3.870508056000791e-17
	4.207639138913272e-17
	-6.482396893497724e-19
	3.863997698274053e-17
	4.193564992288968e-17
	-5.415391668023878e-14
	1.873533284219213e-14
	2.281075896682445e-14
3		4.000000000000000e-02
	5.000000000000000e+00
	5.000000000000000e+00
	4.124708365414502e+00
	5.000000000000000e+00
	5.000000000000000e+00
	4.699668918535101e+00
	5.000000000000000e+00
	0.000000000000000e+00
	0.000000000000000e+00
	1.781348061817572e-01
	0.000000000000000e+00
	2.493565535670739e+00
	4.971412376035452e-08
	5.000000000000000e+00
	5.000000000000000e+00
	5.000000000000000e+00
	1.781348055790052e-01
	0.000000000000000e+00
	2.493565528494657e+00
	4.971412462022295e-08
	5.000000000000000e+00
	5.000000000000000e+00
	5.000000000000000e+00
	1.781355817516010e-01
	0.000000000000000e+00
	2.493516005171389e+00
	4.971398629959857e-08
	5.000000000000000e+00
	5.000000000000000e+00
	5.000000000000000e+00
	-1.719021291655038e-11
	-1.719016522006111e-11
	-1.719016521108055e-11
	-1.290941728804743e-12
	0.000000000000000e+00
	0.000000000000000e+00
	-2.062354309512182e-04
	-7.812873929324395e-19
	9.622677294513032e-18
	9.743139389318775e-18
	-3.007152745175744e-19
	2.875498065746292e-17
	3.141280433699213e-17
	-3.319450815139758e-19
	2.871756098342383e-17
	3.133621069776810e-17
	-2.779640094899447e-13
	9.995523890334300e-14
	1.933986501789913e-14
4		8.000000000000000e-02
	5.000000000000000e+00
	5.000000000000000e+00
	4.124708123511530e+00
	5.000000000000000e+00
	5.000000000000000e+00
	4.699669523701306e+00
	5.000000000000000e+00
	0.000000000000000e+00
	0.000000000000000e+00
	1.781349885222285e-01
	0.000000000000000e+00
	2.493565305198812e+00
	4.971412429932969e-08
	5.000000000000000e+00
	5.000000000000000e+00
	5.000000000000000e+00
	1.781350019442402e-01
	0.000000000000000e+00
	2.493565302024396e+00
	4.971412349193550e-08
	5.000000000000000e+00
	5.000000000000000e+00
	5.000000000000000e+00
	1.781353879635471e-01
	0.000000000000000e+00
	2.493514747202844e+00
	4.971398120537894e-08
	5.000000000000000e+00
	5.000000000000000e+00
	5.000000000000000e+00
	-1.719021422382538e-11
	-1.719016423504352e-11
	-1.719016425836069e-11
	-1.100885073767594e-12
	0.000000000000000e+00
	0.000000000000000e+00
	-2.062354193643756e-04
	1.583758013531605e-19
	-1.426731807478794e-17
	-1.557567990782171e-17
	9.319046553264062e-19
	-2.886045569874632e-17
	-3.081621471002091e-17
	9.180437912453758e-19
	-2.888019553728819e-17
	-3.085365743374262e-17
	2.791814840827772e-13
	-1.003983244519425e-13
	-1.933760950150949e-14
5		1.600000000000000e-01
	5.000000000000000e+00
	5.000000000000000e+00
	4.124708396716288e+00
	5.000000000000000e+00
	5.000000000000000e+00
	4.699668839327546e+00
	5.000000000000000e+00
	0.000000000000000e+00
	0.000000000000000e+00
	1.781344348972775e-01
	0.000000000000000e+00
	2.493536910722264e+00
	4.971404101814826e-08
	5.000000000000000e+00
	5.000000000000000e+00
	5.000000000000000e+00
	1.781344666022347e-01
	0.000000000000000e+00
	2.493536913959426e+00
	4.971403859346398e-08
	5.000000000000000e+00
	5.000000000000000e+00
	5.000000000000000e+00
	1.781358709263988e-01
	0.000000000000000e+00
	2.493498447826842e+00
	4.971393757665905e-08
	5.000000000000000e+00
	5.000000000000000e+00
	5.000000000000000e+00
	-1.719022960395390e-11
	-1.719019384813897e-11
	-1.719019391448606e-11
	-1.291591841113743e-12
	0.000000000000000e+00
	0.000000000000000e+00
	-2.062354325157445e-04
	6.177554509640050e-19
	-1.109300266023165e-17
	-1.155149112331087e-17
	-1.792345480465149e-18
	-1.748339943623722e-17
	-2.133085057520714e-17
	-1.807869037707544e-18
	-1.750282642486292e-17
	-2.136984727261816e-17
	-2.798762966191393e-13
	1.006471472937740e-13
	1.946301563689034e-14
6		3.200000000000000e-01
	5.000000000000000e+00
	5.000000000000000e+00
	4.124708395843379e+00
	5.000000000000000e+00
	5.000000000000000e+00
	4.699668837996384e+00
	5.000000000000000e+00
	0.000000000000000e+00
	0.000000000000000e+00
	1.781340666674703e-01
	0.000000000000000e+00
	2.493505867272546e+00
	4.971394698134165e-08
	5.000000000000000e+00
	5.000000000000000e+00
	5.000000000000000e+00
	1.781341215674781e-01
	0.000000000000000e+00
	2.493505878283339e+00
	4.971394741348738e-08
	5.000000000000000e+00
	5.000000000000000e+00
	5.000000000000000e+00
	1.781363218461155e-01
	0.000000000000000e+00
	2.493490921035199e+00
	4.971391834937193e-08
	5.000000000000000e+00
	5.000000000000000e+00
	5.000000000000000e+00
	-1.719023646199830e-11
	-1.719022572387242e-11
	-1.719022584457421e-11
	-1.100648458117064e-12
	0.000000000000000e+00
	0.000000000000000e+00
	-2.062354329818161e-04
	-2.554227533694534e-19
	5.417526616936529e-18
	5.693719718561751e-18
	1.515044485960266e-18
	-7.659888612445565e-18
	-6.746788742421756e-18
	1.511932057700231e-18
	-7.665015165013623e-18
	-6.755961054197498e-18
	2.798756206198457e-13
	-1.006475448826849e-13
	-1.946418842969284e-14
7		6.400000000000000e-01
	5.000000000000000e+00
	5.000000000000000e+00
	4.124708396748939e+00
	5.000000000000000e+00
	5.000000000000000e+00
	4.699668839232036e+00
	5.000000000000000e+00
	0.000000000000000e+00
	0.000000000000000e+00
	1.781331456028791e-01
	0.000000000000000e+00
	2.493520327147280e+00
	4.971398151995895e-08
	5.000000000000000e+00
	5.000000000000000e+00
	5.000000000000000e+00
	1.781332078009003e-01
	0.000000000000000e+00
	2.493520342401568e+00
	4.971398200893227e-08
	5.000000000000000e+00
	5.000000000000000e+00
	5.000000000000000e+00
	1.781329373092058e-01
	0.000000000000000e+00
	2.493502402197591e+00
	4.971392800563209e-08
	5.000000000000000e+00
	5.000000000000000e+00
	5.000000000000000e+00
	-1.719023163934841e-11
	-1.719021337350651e-11
	-1.719021351318860e-11
	-1.291590992456007e-12
	0.000000000000000e+00
	0.000000000000000e+00
	-2.062354325169657e-04
	-1.104413645917644e-18
	-2.154012270084825e-18
	-3.626278471967149e-18
	-1.882167488551210e-18
	1.309446982084453e-17
	1.233313509840741e-17
	-1.881988054211843e-18
	1.309501213532762e-17
	1.233393606274870e-17
	-2.798753069527506e-13
	1.006477510847495e-13
	1.946477867558587e-14
8		1.280000000000000e+00
	5.000000000000000e+00
	5.000000000000000e+00
	4.124708395864265e+00
	5.000000000000000e+00
	5.000000000000000e+00
	4.699668837950298e+00
	5.000000000000000e+00
	0.000000000000000e+00
	0.000000000000000e+00
	1.781326326993429e-01
	0.000000000000000e+00
	2.493562535052854e+00
	4.971410029304182e-08
	5.000000000000000e+00
	5.000000000000000e+00
	5.000000000000000e+00
	1.781327385774506e-01
	0.000000000000000e+00
	2.493562558427979e+00
	4.971410112449587e-08
	5.000000000000000e+00
	5.000000000000000e+00
	5.000000000000000e+00
	1.781316651223826e-01
	0.000000000000000e+00
	2.493516793698338e+00
	4.971396118127259e-08
	5.000000000000000e+00
	5.000000000000000e+00
	5.000000000000000e+00
	-1.719021989701522e-11
	-1.719017185233651e-11
	-1.719017208726333e-11
	-1.100648875333162e-12
	0.000000000000000e+00
	0.000000000000000e+00
	-2.062354329829263e-04
	8.488489668757691e-19
	4.785973606540872e-18
	6.243882883234508e-18
	1.787920395175093e-18
	-4.729575081247602e-18
	-3.202718937099107e-18
	1.778966187119690e-18
	-4.740371177741018e-18
	-3.224753872153744e-18
	2.798751442691750e-13
	-1.006478518083614e-13
	-1.946507183935510e-14
9		2.280000000000000e+00
	5.000000000000000e+00
	5.000000000000000e+00
	4.124708396749622e+00
	5.000000000000000e+00
	5.000000000000000e+00
	4.699668839232834e+00
	5.000000000000000e+00
	0.000000000000000e+00
	0.000000000000000e+00
	1.781360239476751e-01
	0.000000000000000e+00
	2.493528328833824e+00
	4.971402657454232e-08
	5.000000000000000e+00
	5.000000000000000e+00
	5.000000000000000e+00
	1.781360698289350e-01
	0.000000000000000e+00
	2.493528342994480e+00
	4.971402516680073e-08
	5.000000000000000e+00
	5.000000000000000e+00
	5.000000000000000e+00
	1.781328559960521e-01
	0.000000000000000e+00
	2.493501358901991e+00
	4.971392423025459e-08
	5.000000000000000e+00
	5.000000000000000e+00
	5.000000000000000e+00
	-1.719023278280268e-11
	-1.719019947438183e-11
	-1.719019958065720e-11
	-1.291590762307813e-12
	0.000000000000000e+00
	0.000000000000000e+00
	-2.062354325169657e-04
	-6.957416165951747e-19
	-6.614473414925519e-18
	-8.090022850626777e-18
	-1.359628710130136e-18
	7.635846977059195e-19
	-6.928455449836669e-19
	-1.342960932418994e-18
	7.831448096606930e-19
	-6.524169227980480e-19
	-2.798750400873278e-13
	1.006479163210562e-13
	1.946525959880760e-14
10		3.280000000000001e+00
	5.000000000000000e+00
	5.000000000000000e+00
	4.124708395865127e+00
	5.000000000000000e+00
	5.000000000000000e+00
	4.699668837951039e+00
	5.000000000000000e+00
	0.000000000000000e+00
	0.000000000000000e+00
	1.781318686298668e-01
	0.000000000000000e+00
	2.493531313582615e+00
	4.971400374919632e-08
	5.000000000000000e+00
	5.000000000000000e+00
	5.000000000000000e+00
	1.781320531563918e-01
	0.000000000000000e+00
	2.493531351593412e+00
	4.971400786058046e-08
	5.000000000000000e+00
	5.000000000000000e+00
	5.000000000000000e+00
	1.781315835378097e-01
	0.000000000000000e+00
	2.493490153825168e+00
	4.971388274458274e-08
	5.000000000000000e+00
	5.000000000000000e+00
	5.000000000000000e+00
	-1.719024670242232e-11
	-1.719020448210459e-11
	-1.719020488846981e-11
	-1.100649054967607e-12
	0.000000000000000e+00
	0.000000000000000e+00
	-2.062354329824823e-04
	5.321387165259031e-19
	5.016963530416805e-18
	6.141149448021383e-18
	8.432049624143718e-19
	-8.854856660549099e-19
	-2.519338674099166e-20
	8.087109557187354e-19
	-9.256265253759552e-19
	-1.084875866956084e-19
	2.798749359653995e-13
	-1.006479807706268e-13
	-1.946544720078558e-14
11		4.280000000000001e+00
	5.000000000000000e+00
	5.000000000000000e+00
	4.124708396749313e+00
	5.000000000000000e+00
	5.000000000000000e+00
	4.699668839232537e+00
	5.000000000000000e+00
	0.000000000000000e+00
	0.000000000000000e+00
	1.781325235031412e-01
	0.000000000000000e+00
	2.493528293981686e+00
	4.971399887544234e-08
	5.000000000000000e+00
	5.000000000000000e+00
	5.000000000000000e+00
	1.781333631288625e-01
	0.000000000000000e+00
	2.493528482481117e+00
	4.971400813792404e-08
	5.000000000000000e+00
	5.000000000000000e+00
	5.000000000000000e+00
	1.781320548620345e-01
	0.000000000000000e+00
	2.493498540046094e+00
	4.971391048932226e-08
	5.000000000000000e+00
	5.000000000000000e+00
	5.000000000000000e+00
	-1.719023724358828e-11
	-1.719020474916204e-11
	-1.719020661590647e-11
	-1.291590582762703e-12
	0.000000000000000e+00
	0.000000000000000e+00
	-2.062354325170768e-04
	-4.715380136502256e-19
	-3.882133067324690e-18
	-4.819555193304861e-18
	-6.747822276027754e-19
	6.831790390633495e-19
	-7.927148223801410e-21
	-7.245145074381257e-19
	6.212285640619090e-19
	-1.325216984410015e-19
	-2.798748318673044e-13
	1.006480451975534e-13
	1.946563474527452e-14
12		5.280000000000001e+00
	5.000000000000000e+00
	5.000000000000000e+00
	4.124708395865000e+00
	5.000000000000000e+00
	5.000000000000000e+00
	4.699668837950909e+00
	5.000000000000000e+00
	0.000000000000000e+00
	0.000000000000000e+00
	1.781338411887073e-01
	0.000000000000000e+00
	2.493531025926284e+00
	4.971401710371055e-08
	5.000000000000000e+00
	5.000000000000000e+00
	5.000000000000000e+00
	1.781337358310011e-01
	0.000000000000000e+00
	2.493531036269131e+00
	4.971401636032560e-08
	5.000000000000000e+00
	5.000000000000000e+00
	5.000000000000000e+00
	1.781321034707971e-01
	0.000000000000000e+00
	2.493492247661158e+00
	4.971389249385501e-08
	5.000000000000000e+00
	5.000000000000000e+00
	5.000000000000000e+00
	-1.719024354093251e-11
	-1.719020143995894e-11
	-1.719020124298171e-11
	-1.100649234499016e-12
	0.000000000000000e+00
	0.000000000000000e+00
	-2.062354329825933e-04
	4.777854369695212e-19
	3.081482541060380e-18
	3.942499618916503e-18
	7.227010530118144e-19
	-3.086337774569433e-19
	4.756536384074932e-19
	8.939309177181620e-19
	-1.044063421073373e-19
	8.946178089450058e-19
	2.798747277586627e-13
	-1.006481096339409e-13
	-1.946582231416528e-14
13		6.280000000000001e+00
	5.000000000000000e+00
	5.000000000000000e+00
	4.124708396750124e+00
	5.000000000000000e+00
	5.000000000000000e+00
	4.699668839233407e+00
	5.000000000000000e+00
	0.000000000000000e+00
	0.000000000000000e+00
	1.781343649610026e-01
	0.000000000000000e+00
	2.493529323327834e+00
	4.971401775158230e-08
	5.000000000000000e+00
	5.000000000000000e+00
	5.000000000000000e+00
	1.781353203348512e-01
	0.000000000000000e+00
	2.493529495755726e+00
	4.971402248132255e-08
	5.000000000000000e+00
	5.000000000000000e+00
	5.000000000000000e+00
	1.781313578414110e-01
	0.000000000000000e+00
	2.493496902940133e+00
	4.971389979882492e-08
	5.000000000000000e+00
	5.000000000000000e+00
	5.000000000000000e+00
	-1.719024029303899e-11
	-1.719019981662677e-11
	-1.719020189379563e-11
	-1.291590403149972e-12
	0.000000000000000e+00
	0.000000000000000e+00
	-2.062354325165217e-04
	-5.736503483309911e-19
	-2.578832143774818e-18
	-3.495753385679491e-18
	-5.189813227253261e-19
	3.113741128106872e-19
	-2.424753828197297e-19
	-8.265896773853520e-19
	-4.769819271423361e-20
	-9.864999186612239e-19
	-2.798746235797623e-13
	1.006481741293166e-13
	1.946601003991017e-14
14		7.280000000000001e+00
	5.000000000000000e+00
	5.000000000000000e+00
	4.124708395865029e+00
	5.000000000000000e+00
	5.000000000000000e+00
	4.699668837950905e+00
	5.000000000000000e+00
	0.000000000000000e+00
	0.000000000000000e+00
	1.781333502955913e-01
	0.000000000000000e+00
	2.493530517395941e+00
	4.971401117914592e-08
	5.000000000000000e+00
	5.000000000000000e+00
	5.000000000000000e+00
	1.781329971664896e-01
	0.000000000000000e+00
	2.493530512843278e+00
	4.971400951002238e-08
	5.000000000000000e+00
	5.000000000000000e+00
	5.000000000000000e+00
	1.781309354452375e-01
	0.000000000000000e+00
	2.493493101262861e+00
	4.971388567726291e-08
	5.000000000000000e+00
	5.000000000000000e+00
	5.000000000000000e+00
	-1.719024500860899e-11
	-1.719020343686703e-11
	-1.719020273524205e-11
	-1.100649414178207e-12
	0.000000000000000e+00
	0.000000000000000e+00
	-2.062354329827043e-04
	5.193414436123575e-19
	2.038004725995371e-18
	2.837192850355127e-18
	2.202916491987011e-19
	-4.745847245508232e-19
	-2.751942564403729e-19
	6.961336785555277e-19
	7.255790584522277e-20
	8.665683896826331e-19
	2.798745194005001e-13
	-1.006482386229346e-13
	-1.946619776100216e-14
15		8.280000000000001e+00
	5.000000000000000e+00
	5.000000000000000e+00
	4.124708396749186e+00
	5.000000000000000e+00
	5.000000000000000e+00
	4.699668839232348e+00
	5.000000000000000e+00
	0.000000000000000e+00
	0.000000000000000e+00
	1.781348329477726e-01
	0.000000000000000e+00
	2.493529708011261e+00
	4.971402137815359e-08
	5.000000000000000e+00
	5.000000000000000e+00
	5.000000000000000e+00
	1.781315834836948e-01
	0.000000000000000e+00
	2.493528944865213e+00
	4.971399394337155e-08
	5.000000000000000e+00
	5.000000000000000e+00
	5.000000000000000e+00
	1.781318066237246e-01
	0.000000000000000e+00
	2.493496101783903e+00
	4.971390071950957e-08
	5.000000000000000e+00
	5.000000000000000e+00
	5.000000000000000e+00
	-1.719024021190291e-11
	-1.719020783847338e-11
	-1.719020057492177e-11
	-1.291590223556162e-12
	0.000000000000000e+00
	0.000000000000000e+00
	-2.062354325172988e-04
	-4.073331786270135e-19
	-1.543179587106890e-18
	-2.164242764767668e-18
	-4.020493219411094e-19
	9.487071813506633e-20
	-3.494438921736373e-19
	-5.055090338904332e-19
	1.105292673981095e-20
	-5.588824520040827e-19
	-2.798744153067993e-13
	1.006483030475347e-13
	1.946638529887365e-14
16		9.280000000000001e+00
	5.000000000000000e+00
	5.000000000000000e+00
	4.124708395864663e+00
	5.000000000000000e+00
	5.000000000000000e+00
	4.699668837950512e+00
	5.000000000000000e+00
	0.000000000000000e+00
	0.000000000000000e+00
	1.781332926772900e-01
	0.000000000000000e+00
	2.493530312412516e+00
	4.971401105821172e-08
	5.000000000000000e+00
	5.000000000000000e+00
	5.000000000000000e+00
	1.781314146321027e-01
	0.000000000000000e+00
	2.493529812714349e+00
	4.971399611477913e-08
	5.000000000000000e+00
	5.000000000000000e+00
	5.000000000000000e+00
	1.781319956099613e-01
	0.000000000000000e+00
	2.493494033636751e+00
	4.971389779763904e-08
	5.000000000000000e+00
	5.000000000000000e+00
	5.000000000000000e+00
	-1.719024194514070e-11
	-1.719020730923913e-11
	-1.719020305145217e-11
	-1.100649593724118e-12
	0.000000000000000e+00
	0.000000000000000e+00
	-2.062354329827043e-04
	4.316311840233858e-19
	1.301892611903367e-18
	1.925252477892985e-18
	3.803404796441505e-19
	-4.937945549722467e-21
	4.242263789179598e-19
	3.074760132467298e-19
	-1.282292867283259e-19
	2.057638588180676e-19
	2.798743111816657e-13
	-1.006483674992767e-13
	-1.946657290726229e-14
17		1.028000000000000e+01
	5.000000000000000e+00
	5.000000000000000e+00
	4.124708396749480e+00
	5.000000000000000e+00
	5.000000000000000e+00
	4.699668839232646e+00
	5.000000000000000e+00
	0.000000000000000e+00
	0.000000000000000e+00
	1.781350414181093e-01
	0.000000000000000e+00
	2.493529895799363e+00
	4.971402341478621e-08
	5.000000000000000e+00
	5.000000000000000e+00
	5.000000000000000e+00
	1.781355356298027e-01
	0.000000000000000e+00
	2.493529990030139e+00
	4.971402725059420e-08
	5.000000000000000e+00
	5.000000000000000e+00
	5.000000000000000e+00
	1.781312843335310e-01
	0.000000000000000e+00
	2.493495500222167e+00
	4.971389607464013e-08
	5.000000000000000e+00
	5.000000000000000e+00
	5.000000000000000e+00
	-1.719024186254919e-11
	-1.719019889711437e-11
	-1.719019997550236e-11
	-1.291590043954933e-12
	0.000000000000000e+00
	0.000000000000000e+00
	-2.062354325166327e-04
	-5.230797170546851e-19
	-1.203747222319202e-18
	-1.920189609330060e-18
	1.494975073777272e-19
	5.485149934870167e-19
	7.746005386272948e-19
	-8.264013181324498e-20
	2.958306832343887e-19
	2.333176466817829e-19
	-2.798742070323371e-13
	1.006484319719567e-13
	1.946676057169241e-14
18		1.128000000000000e+01
	5.000000000000000e+00
	5.000000000000000e+00
	4.124708395864753e+00
	5.000000000000000e+00
	5.000000000000000e+00
	4.699668837950631e+00
	5.000000000000000e+00
	0.000000000000000e+00
	0.000000000000000e+00
	1.781332194033614e-01
	0.000000000000000e+00
	2.493530197900563e+00
	4.971401198718779e-08
	5.000000000000000e+00
	5.000000000000000e+00
	5.000000000000000e+00
	1.781329206758661e-01
	0.000000000000000e+00
	2.493530165192548e+00
	4.971401061171852e-08
	5.000000000000000e+00
	5.000000000000000e+00
	5.000000000000000e+00
	1.781310004890050e-01
	0.000000000000000e+00
	2.493494170724154e+00
	4.971389103411968e-08
	5.000000000000000e+00
	5.000000000000000e+00
	5.000000000000000e+00
	-1.719024379411076e-11
	-1.719020392996921e-11
	-1.719020330603469e-11
	-1.100649773339486e-12
	0.000000000000000e+00
	0.000000000000000e+00
	-2.062354329827043e-04
	4.865853468154363e-19
	9.974079180969600e-19
	1.651111211812891e-18
	-4.857026212815648e-19
	-8.565534472610271e-19
	-1.494578089706180e-18
	-1.516175745409630e-19
	-4.873756776202895e-19
	-7.094821656930351e-19
	2.798741028929346e-13
	-1.006484964390015e-13
	-1.946694821740758e-14
19		1.228000000000000e+01
	5.000000000000000e+00
	5.000000000000000e+00
	4.124708396749574e+00
	5.000000000000000e+00
	5.000000000000000e+00
	4.699668839232784e+00
	5.000000000000000e+00
	0.000000000000000e+00
	0.000000000000000e+00
	1.781349964066415e-01
	0.000000000000000e+00
	2.493529957989943e+00
	4.971402236455661e-08
	5.000000000000000e+00
	5.000000000000000e+00
	5.000000000000000e+00
	1.781313630594589e-01
	0.000000000000000e+00
	2.493529144825670e+00
	4.971399379764438e-08
	5.000000000000000e+00
	5.000000000000000e+00
	5.000000000000000e+00
	1.781316109856396e-01
	0.000000000000000e+00
	2.493495257083657e+00
	4.971389684755420e-08
	5.000000000000000e+00
	5.000000000000000e+00
	5.000000000000000e+00
	-1.719024145875666e-11
	-1.719020808757852e-11
	-1.719020001019745e-11
	-1.291589864338221e-12
	0.000000000000000e+00
	0.000000000000000e+00
	-2.062354325165217e-04
	-4.080937858764967e-19
	-7.809584953691201e-19
	-1.323421865629984e-18
	2.854385673898269e-19
	5.288611829784156e-19
	9.064781199560155e-19
	3.800872292264548e-19
	6.812054598171838e-19
	1.181631350709980e-18
	-2.798739987423135e-13
	1.006485609124053e-13
	1.946713588318187e-14
20		1.328000000000000e+01
	5.000000000000000e+00
	5.000000000000000e+00
	4.124708395864652e+00
	5.000000000000000e+00
	5.000000000000000e+00
	4.699668837950515e+00
	5.000000000000000e+00
	0.000000000000000e+00
	0.000000000000000e+00
	1.781335794182152e-01
	0.000000000000000e+00
	2.493530217796468e+00
	4.971401199612228e-08
	5.000000000000000e+00
	5.000000000000000e+00
	5.000000000000000e+00
	1.781322302326767e-01
	0.000000000000000e+00
	2.493529787393673e+00
	4.971400462025533e-08
	5.000000000000000e+00
	5.000000000000000e+00
	5.000000000000000e+00
	1.781305801673211e-01
	0.000000000000000e+00
	2.493494336303084e+00
	4.971388669766545e-08
	5.000000000000000e+00
	5.000000000000000e+00
	5.000000000000000e+00
	-1.719024446191951e-11
	-1.719020569699001e-11
	-1.719020256005325e-11
	-1.100649952975146e-12
	0.000000000000000e+00
	0.000000000000000e+00
	-2.062354329829263e-04
	2.755609050468582e-19
	5.326155705353206e-19
	8.994616621415576e-19
	-1.739455408582621e-19
	-3.368730103856028e-19
	-5.685166665974424e-19
	-5.622697094133616e-19
	-8.269832185014215e-19
	-1.548426521168060e-18
	2.798738945822832e-13
	-1.006486253935122e-13
	-1.946732356849830e-14
21		1.428000000000000e+01
	5.000000000000000e+00
	5.000000000000000e+00
	4.124708396749162e+00
	5.000000000000000e+00
	5.000000000000000e+00
	4.699668839232302e+00
	5.000000000000000e+00
	0.000000000000000e+00
	0.000000000000000e+00
	1.781340547326984e-01
	0.000000000000000e+00
	2.493529818252658e+00
	4.971401515186123e-08
	5.000000000000000e+00
	5.000000000000000e+00
	5.000000000000000e+00
	1.781344799930315e-01
	0.000000000000000e+00
	2.493529956727781e+00
	4.971401861114385e-08
	5.000000000000000e+00
	5.000000000000000e+00
	5.000000000000000e+00
	1.781324272100117e-01
	0.000000000000000e+00
	2.493495214372704e+00
	4.971390350324743e-08
	5.000000000000000e+00
	5.000000000000000e+00
	5.000000000000000e+00
	-1.719023987859187e-11
	-1.719020104396040e-11
	-1.719020203620615e-11
	-1.291589684731124e-12
	0.000000000000000e+00
	0.000000000000000e+00
	-2.062354325171878e-04
	-3.808581243500162e-20
	-1.865888875226462e-19
	-2.490755549602691e-19
	4.631974378320688e-19
	6.429259970225750e-19
	1.233257072182614e-18
	6.233811722739106e-19
	8.358287175482261e-19
	1.627234635651667e-18
	-2.798737904609236e-13
	1.006486898440651e-13
	1.946751117295783e-14
22		1.528000000000000e+01
	5.000000000000000e+00
	5.000000000000000e+00
	4.124708395864381e+00
	5.000000000000000e+00
	5.000000000000000e+00
	4.699668837950236e+00
	5.000000000000000e+00
	0.000000000000000e+00
	0.000000000000000e+00
	1.781347286374486e-01
	0.000000000000000e+00
	2.493530370131390e+00
	4.971402074803699e-08
	5.000000000000000e+00
	5.000000000000000e+00
	5.000000000000000e+00
	1.781338104939561e-01
	0.000000000000000e+00
	2.493530156282877e+00
	4.971401348562172e-08
	5.000000000000000e+00
	5.000000000000000e+00
	5.000000000000000e+00
	1.781336345226513e-01
	0.000000000000000e+00
	2.493495191320203e+00
	4.971391209034871e-08
	5.000000000000000e+00
	5.000000000000000e+00
	5.000000000000000e+00
	-1.719023749514659e-11
	-1.719020216126299e-11
	-1.719020011145413e-11
	-1.100650132568801e-12
	0.000000000000000e+00
	0.000000000000000e+00
	-2.062354329832594e-04
	1.933098474818329e-19
	3.362223070515363e-19
	5.896722835972571e-19
	-5.492756194574744e-19
	-7.019554187816368e-19
	-1.395686760813637e-18
	-5.367372421687023e-19
	-6.798951783628927e-19
	-1.357159666891063e-18
	2.798736863171784e-13
	-1.006487543149873e-13
	-1.946769882859916e-14
23		1.628000000000000e+01
	5.000000000000000e+00
	5.000000000000000e+00
	4.124708396749249e+00
	5.000000000000000e+00
	5.000000000000000e+00
	4.699668839232459e+00
	5.000000000000000e+00
	0.000000000000000e+00
	0.000000000000000e+00
	1.781331574411449e-01
	0.000000000000000e+00
	2.493529754416988e+00
	4.971400847131383e-08
	5.000000000000000e+00
	5.000000000000000e+00
	5.000000000000000e+00
	1.781343118923731e-01
	0.000000000000000e+00
	2.493529968079907e+00
	4.971401921402146e-08
	5.000000000000000e+00
	5.000000000000000e+00
	5.000000000000000e+00
	1.781334325324281e-01
	0.000000000000000e+00
	2.493495417181304e+00
	4.971391041019554e-08
	5.000000000000000e+00
	5.000000000000000e+00
	5.000000000000000e+00
	-1.719023766251898e-11
	-1.719020137065478e-11
	-1.719020388758795e-11
	-1.291589505105287e-12
	0.000000000000000e+00
	0.000000000000000e+00
	-2.062354325170768e-04
	-2.192800506833402e-19
	-3.327915738958726e-19
	-6.152240425052186e-19
	6.137405557303616e-19
	7.411948743311742e-19
	1.511846454945039e-18
	3.347278403020558e-19
	4.023698783909126e-19
	8.224845575210431e-19
	-2.798735821604568e-13
	1.006488187922685e-13
	1.946788650440302e-14
24		1.728000000000000e+01
	5.000000000000000e+00
	5.000000000000000e+00
	4.124708395864492e+00
	5.000000000000000e+00
	5.000000000000000e+00
	4.699668837950406e+00
	5.000000000000000e+00
	0.000000000000000e+00
	0.000000000000000e+00
	1.781351935239648e-01
	0.000000000000000e+00
	2.493530326649084e+00
	4.971402398643909e-08
	5.000000000000000e+00
	5.000000000000000e+00
	5.000000000000000e+00