Title: kicad schematic
Date: Sat Nov 08 09:28:33  2025
Plotname: Transient Analysis
Flags: real
No. Variables: 34
No. Points: 59      
Variables:
	0	time	time
	1	v(net-_q10-pad3_)	voltage
	2	v(net-_q2-pad1_)	voltage
	3	v(net-_i4-pad2_)	voltage
	4	v(net-_i5-pad1_)	voltage
	5	v(net-_q12-pad2_)	voltage
	6	v(net-_q4-pad1_)	voltage
	7	v(vref)	voltage
	8	v(net-_i1-pad1_)	voltage
	9	v(vin)	voltage
	10	v(net-_i2-pad1_)	voltage
	11	v(net-_q3-pad1_)	voltage
	12	v(net-_i2-pad2_)	voltage
	13	v(net-_m1-pad2_)	voltage
	14	v(net-_m1-pad1_)	voltage
	15	v(net-_m4-pad2_)	voltage
	16	v(net-_q11-pad2_)	voltage
	17	v(out)	voltage
	18	v(net-_i3-pad1_)	voltage
	19	v(net-_q5-pad3_)	voltage
	20	v(net-_q1-pad1_)	voltage
	21	v(q8#collCX)	voltage
	22	v(q5#collCX)	voltage
	23	v(q6#collCX)	voltage
	24	v(q2#collCX)	voltage
	25	v(q3#collCX)	voltage
	26	v(q1#collCX)	voltage
	27	v(q7#collCX)	voltage
	28	v(q11#collCX)	voltage
	29	v(q12#collCX)	voltage
	30	v(q4#collCX)	voltage
	31	v(q9#collCX)	voltage
	32	v(q10#collCX)	voltage
	33	i(v1)	current
Values:
0		0.000000000000000e+00
	1.742954993467938e+00
	1.712196356684234e+00
	2.361385894532613e+00
	1.109876588143495e+00
	1.750905264197997e+00
	2.786338031478976e+00
	1.250726871091846e+00
	2.872857422863913e+00
	3.588865877850780e+00
	5.000000000000000e+00
	1.672495306156165e+00
	1.934875899586565e+00
	4.508806281311858e+00
	4.173300444479624e-01
	1.131255244028580e+00
	1.676764269496609e+00
	4.997451909182606e+00
	2.147333839889747e+00
	2.792291154845850e+00
	2.872987318874099e+00
	2.872188317281767e+00
	2.147365241926457e+00
	2.786306376115919e+00
	1.712196356685576e+00
	1.672637613208321e+00
	2.873998452984563e+00
	1.676730134167132e+00
	4.508757161939990e+00
	1.130868369552983e+00
	2.786338031474651e+00
	1.750097493535625e+00
	2.361039433101607e+00
	-4.492330455673188e-03
1		1.000000000000000e-03
	1.742954993467576e+00
	1.712196356683888e+00
	2.361385894532247e+00
	1.109876588143221e+00
	1.750905264197660e+00
	2.786338031478994e+00
	1.250726871091884e+00
	2.872857422863676e+00
	3.588865877850550e+00
	5.000000000000000e+00
	1.672495306155826e+00
	1.934875899586602e+00
	4.508806281307364e+00
	4.173300444257393e-01
	1.131255244028387e+00
	1.676764269496275e+00
	4.997451909181502e+00
	2.147333839889506e+00
	2.792291154845611e+00
	2.872987318873863e+00
	2.872188317281531e+00
	2.147365241926215e+00
	2.786306376115938e+00
	1.712196356685231e+00
	1.672637613207982e+00
	2.873998452984327e+00
	1.676730134166798e+00
	4.508757161935495e+00
	1.130868369552790e+00
	2.786338031474670e+00
	1.750097493535289e+00
	2.361039433101240e+00
	-4.492330455673997e-03
2		2.000000000000000e-03
	1.742954993467927e+00
	1.712196356684284e+00
	2.361385894532603e+00
	1.109876588143667e+00
	1.750905264198161e+00
	2.786338031479985e+00
	1.250726871091880e+00
	2.872857422864485e+00
	3.588865877851334e+00
	5.000000000000000e+00
	1.672495306156174e+00
	1.934875899586598e+00
	4.508806281309080e+00
	4.173300444267816e-01
	1.131255244028783e+00
	1.676764269496626e+00
	4.997451909181095e+00
	2.147333839890323e+00
	2.792291154846418e+00
	2.872987318874672e+00
	2.872188317282340e+00
	2.147365241927032e+00
	2.786306376116928e+00
	1.712196356685626e+00
	1.672637613208330e+00
	2.873998452985135e+00
	1.676730134167148e+00
	4.508757161937211e+00
	1.130868369553186e+00
	2.786338031475660e+00
	1.750097493535790e+00
	2.361039433101597e+00
	-4.492330455673077e-03
3		4.000000000000000e-03
	1.742954993467945e+00
	1.712196356684252e+00
	2.361385894532622e+00
	1.109876588143560e+00
	1.750905264197998e+00
	2.786338031479267e+00
	1.250726871091871e+00
	2.872857422864019e+00
	3.588865877850882e+00
	5.000000000000000e+00
	1.672495306156209e+00
	1.934875899586590e+00
	4.508806281306167e+00
	4.173300444300931e-01
	1.131255244028723e+00
	1.676764269496658e+00
	4.997451909180823e+00
	2.147333839889846e+00
	2.792291154845947e+00
	2.872987318874207e+00
	2.872188317281875e+00
	2.147365241926555e+00
	2.786306376116209e+00
	1.712196356685595e+00
	1.672637613208365e+00
	2.873998452984670e+00
	1.676730134167181e+00
	4.508757161934298e+00
	1.130868369553126e+00
	2.786338031474942e+00
	1.750097493535627e+00
	2.361039433101615e+00
	-4.492330455673850e-03
4		8.000000000000000e-03
	1.742954993468601e+00
	1.712196356684884e+00
	2.361385894533287e+00
	1.109876588144145e+00
	1.750905264198617e+00
	2.786338031479759e+00
	1.250726871091867e+00
	2.872857422864394e+00
	3.588865877851248e+00
	5.000000000000000e+00
	1.672495306156854e+00
	1.934875899586586e+00
	4.508806281309184e+00
	4.173300444222474e-01
	1.131255244029259e+00
	1.676764269497305e+00
	4.997451909183356e+00
	2.147333839890212e+00
	2.792291154846308e+00
	2.872987318874580e+00
	2.872188317282248e+00
	2.147365241926921e+00
	2.786306376116702e+00
	1.712196356686225e+00
	1.672637613209010e+00
	2.873998452985044e+00
	1.676730134167828e+00
	4.508757161937314e+00
	1.130868369553661e+00
	2.786338031475434e+00
	1.750097493536245e+00
	2.361039433102280e+00
	-4.492330455671947e-03
5		1.600000000000000e-02
	1.742954993468417e+00
	1.712196356684625e+00
	2.361385894533100e+00
	1.109876588143739e+00
	1.750905264198110e+00
	2.786338031481021e+00
	1.250726871091872e+00
	2.872857422865212e+00
	3.588865877852048e+00
	5.000000000000000e+00
	1.672495306156690e+00
	1.934875899586591e+00
	4.508806281302547e+00
	4.173300444287409e-01
	1.131255244028941e+00
	1.676764269497142e+00
	4.997451909182624e+00
	2.147333839891062e+00
	2.792291154847148e+00
	2.872987318875400e+00
	2.872188317283069e+00
	2.147365241927772e+00
	2.786306376117964e+00
	1.712196356685967e+00
	1.672637613208846e+00
	2.873998452985863e+00
	1.676730134167664e+00
	4.508757161930678e+00
	1.130868369553344e+00
	2.786338031476697e+00
	1.750097493535739e+00
	2.361039433102094e+00
	-4.492330455672381e-03
6		3.200000000000000e-02
	1.742954993468174e+00
	1.712196356684348e+00
	2.361385894532853e+00
	1.109876588143415e+00
	1.750905264197705e+00
	2.786338031481507e+00
	1.250726871091880e+00
	2.872857422866026e+00
	3.588865877852837e+00
	5.000000000000000e+00
	1.672495306156464e+00
	1.934875899586598e+00
	4.508806281306460e+00
	4.173300444310648e-01
	1.131255244028700e+00
	1.676764269496918e+00
	4.997451909183570e+00
	2.147333839891918e+00
	2.792291154847994e+00
	2.872987318876216e+00
	2.872188317283886e+00
	2.147365241928627e+00
	2.786306376118449e+00
	1.712196356685690e+00
	1.672637613208621e+00
	2.873998452986678e+00
	1.676730134167440e+00
	4.508757161934589e+00
	1.130868369553103e+00
	2.786338031477183e+00
	1.750097493535334e+00
	2.361039433101847e+00
	-4.492330455671210e-03
7		6.400000000000000e-02
	1.742954993468054e+00
	1.712196356684319e+00
	2.361385894532732e+00
	1.109876588143560e+00
	1.750905264197982e+00
	2.786338031479014e+00
	1.250726871091862e+00
	2.872857422863833e+00
	3.588865877850703e+00
	5.000000000000000e+00
	1.672495306156331e+00
	1.934875899586581e+00
	4.508806281294646e+00
	4.173300444354355e-01
	1.131255244028726e+00
	1.676764269496781e+00
	4.997451909180954e+00
	2.147333839889657e+00
	2.792291154845760e+00
	2.872987318874020e+00
	2.872188317281688e+00
	2.147365241926366e+00
	2.786306376115957e+00
	1.712196356685661e+00
	1.672637613208487e+00
	2.873998452984484e+00
	1.676730134167304e+00
	4.508757161922777e+00
	1.130868369553129e+00
	2.786338031474689e+00
	1.750097493535610e+00
	2.361039433101725e+00
	-4.492330455674903e-03
8		1.280000000000000e-01
	1.742954993467360e+00
	1.712196356683545e+00
	2.361385894532027e+00
	1.109876588142625e+00
	1.750905264196951e+00
	2.786338031481553e+00
	1.250726871091869e+00
	2.872857422866137e+00
	3.588865877852942e+00
	5.000000000000000e+00
	1.672495306155640e+00
	1.934875899586588e+00
	4.508806281303226e+00
	4.173300444314769e-01
	1.131255244027871e+00
	1.676764269496090e+00
	4.997451909182300e+00
	2.147333839892007e+00
	2.792291154848083e+00
	2.872987318876326e+00
	2.872188317283995e+00
	2.147365241928717e+00
	2.786306376118496e+00
	1.712196356684887e+00
	1.672637613207797e+00
	2.873998452986788e+00
	1.676730134166613e+00
	4.508757161931356e+00
	1.130868369552274e+00
	2.786338031477228e+00
	1.750097493534581e+00
	2.361039433101021e+00
	-4.492330455671381e-03
9		2.560000000000000e-01
	1.742954993468908e+00
	1.712196356685146e+00
	2.361385894533598e+00
	1.109876588144277e+00
	1.750905264198687e+00
	2.786338031480640e+00
	1.250726871091851e+00
	2.872857422865188e+00
	3.588865877852024e+00
	5.000000000000000e+00
	1.672495306157171e+00
	1.934875899586570e+00
	4.508806281314289e+00
	4.173300444246535e-01
	1.131255244029441e+00
	1.676764269497619e+00
	4.997451909181814e+00
	2.147333839891022e+00
	2.792291154847109e+00
	2.872987318875376e+00
	2.872188317283044e+00
	2.147365241927731e+00
	2.786306376117583e+00
	1.712196356686488e+00
	1.672637613209327e+00
	2.873998452985839e+00
	1.676730134168142e+00
	4.508757161942420e+00
	1.130868369553844e+00
	2.786338031476315e+00
	1.750097493536315e+00
	2.361039433102591e+00
	-4.492330455671430e-03
10		4.560000000000000e-01
	1.742954993469031e+00
	1.712196356685164e+00
	2.361385894533723e+00
	1.109876588144172e+00
	1.750905264198404e+00
	2.786338031481720e+00
	1.250726871091874e+00
	2.872857422866229e+00
	3.588865877853032e+00
	5.000000000000000e+00
	1.672495306157329e+00
	1.934875899586593e+00
	4.508806281301543e+00
	4.173300444331858e-01
	1.131255244029515e+00
	1.676764269497780e+00
	4.997451909182804e+00
	2.147333839892106e+00
	2.792291154848181e+00
	2.872987318876419e+00
	2.872188317284089e+00
	2.147365241928816e+00
	2.786306376118663e+00
	1.712196356686506e+00
	1.672637613209485e+00
	2.873998452986881e+00
	1.676730134168303e+00
	4.508757161929672e+00
	1.130868369553917e+00
	2.786338031477396e+00
	1.750097493536033e+00
	2.361039433102717e+00
	-4.492330455670834e-03
11		6.560000000000000e-01
	1.742954993467213e+00
	1.712196356683365e+00
	2.361385894531879e+00
	1.109876588142417e+00
	1.750905264196671e+00
	2.786338031481043e+00
	1.250726871091866e+00
	2.872857422865496e+00
	3.588865877852318e+00
	5.000000000000000e+00
	1.672495306155484e+00
	1.934875899586585e+00
	4.508806281304082e+00
	4.173300444334460e-01
	1.131255244027745e+00
	1.676764269495933e+00
	4.997451909182586e+00
	2.147333839891380e+00
	2.792291154847463e+00
	2.872987318875686e+00
	2.872188317283355e+00
	2.147365241928090e+00
	2.786306376117986e+00
	1.712196356684707e+00
	1.672637613207640e+00
	2.873998452986148e+00
	1.676730134166456e+00
	4.508757161932213e+00
	1.130868369552148e+00
	2.786338031476719e+00
	1.750097493534300e+00
	2.361039433100872e+00
	-4.492330455671948e-03
12		8.560000000000001e-01
	1.742954993467422e+00
	1.712196356683559e+00
	2.361385894532091e+00
	1.109876588142577e+00
	1.750905264196817e+00
	2.786338031482157e+00
	1.250726871091880e+00
	2.872857422866472e+00
	3.588865877853271e+00
	5.000000000000000e+00
	1.672495306155704e+00
	1.934875899586598e+00
	4.508806281302373e+00
	4.173300444348182e-01
	1.131255244027912e+00
	1.676764269496157e+00
	4.997451909183384e+00
	2.147333839892360e+00
	2.792291154848431e+00
	2.872987318876662e+00
	2.872188317284332e+00
	2.147365241929069e+00
	2.786306376119100e+00
	1.712196356684901e+00
	1.672637613207861e+00
	2.873998452987124e+00
	1.676730134166679e+00
	4.508757161930504e+00
	1.130868369552315e+00
	2.786338031477833e+00
	1.750097493534447e+00
	2.361039433101085e+00
	-4.492330455670324e-03
13		1.056000000000000e+00
	1.742954993468001e+00
	1.712196356684136e+00
	2.361385894532678e+00
	1.109876588143157e+00
	1.750905264197396e+00
	2.786338031481999e+00
	1.250726871091888e+00
	2.872857422866236e+00
	3.588865877853038e+00
	5.000000000000000e+00
	1.672495306156294e+00
	1.934875899586606e+00
	4.508806281302409e+00
	4.173300444336365e-01
	1.131255244028492e+00
	1.676764269496748e+00
	4.997451909183103e+00
	2.147333839892125e+00
	2.792291154848199e+00
	2.872987318876426e+00
	2.872188317284096e+00
	2.147365241928834e+00
	2.786306376118942e+00
	1.712196356685478e+00
	1.672637613208451e+00
	2.873998452986887e+00
	1.676730134167270e+00
	4.508757161930539e+00
	1.130868369552895e+00
	2.786338031477675e+00
	1.750097493535025e+00
	2.361039433101671e+00
	-4.492330455671057e-03
14		1.256000000000000e+00
	1.742954993467273e+00
	1.712196356683473e+00
	2.361385894531939e+00
	1.109876588142618e+00
	1.750905264196944e+00
	2.786338031481204e+00
	1.250726871091865e+00
	2.872857422865946e+00
	3.588865877852754e+00
	5.000000000000000e+00
	1.672495306155525e+00
	1.934875899586583e+00
	4.508806281306825e+00
	4.173300444319037e-01
	1.131255244027881e+00
	1.676764269495972e+00
	4.997451909182893e+00
	2.147333839891809e+00
	2.792291154847887e+00
	2.872987318876135e+00
	2.872188317283804e+00
	2.147365241928518e+00
	2.786306376118147e+00
	1.712196356684815e+00
	1.672637613207681e+00
	2.873998452986597e+00
	1.676730134166495e+00
	4.508757161934955e+00
	1.130868369552283e+00
	2.786338031476879e+00
	1.750097493534573e+00
	2.361039433100933e+00
	-4.492330455670768e-03
15		1.456000000000000e+00
	1.742954993467554e+00
	1.712196356683720e+00
	2.361385894532225e+00
	1.109876588142807e+00
	1.750905264197067e+00
	2.786338031481923e+00
	1.250726871091883e+00
	2.872857422866353e+00
	3.588865877853153e+00
	5.000000000000000e+00
	1.672495306155827e+00
	1.934875899586602e+00
	4.508806281304093e+00
	4.173300444326200e-01
	1.131255244028133e+00
	1.676764269496279e+00
	4.997451909182944e+00
	2.147333839892229e+00
	2.792291154848302e+00
	2.872987318876543e+00
	2.872188317284212e+00
	2.147365241928939e+00
	2.786306376118866e+00
	1.712196356685062e+00
	1.672637613207983e+00
	2.873998452987004e+00
	1.676730134166801e+00
	4.508757161932223e+00
	1.130868369552536e+00
	2.786338031477599e+00
	1.750097493534696e+00
	2.361039433101218e+00
	-4.492330455670700e-03
16		1.656000000000000e+00
	1.742954993467824e+00
	1.712196356684019e+00
	2.361385894532498e+00
	1.109876588143136e+00
	1.750905264197422e+00
	2.786338031482034e+00
	1.250726871091888e+00
	2.872857422866587e+00
	3.588865877853382e+00
	5.000000000000000e+00
	1.672495306156099e+00
	1.934875899586607e+00
	4.508806281305727e+00
	4.173300444311683e-01
	1.131255244028441e+00
	1.676764269496548e+00
	4.997451909182593e+00
	2.147333839892466e+00
	2.792291154848536e+00
	2.872987318876777e+00
	2.872188317284446e+00
	2.147365241929176e+00
	2.786306376118976e+00
	1.712196356685361e+00
	1.672637613208255e+00
	2.873998452987239e+00
	1.676730134167071e+00
	4.508757161933858e+00
	1.130868369552844e+00
	2.786338031477709e+00
	1.750097493535051e+00
	2.361039433101491e+00
	-4.492330455670157e-03
17		1.856000000000000e+00
	1.742954993467977e+00
	1.712196356684114e+00
	2.361385894532654e+00
	1.109876588143164e+00
	1.750905264197393e+00
	2.786338031481792e+00
	1.250726871091889e+00
	2.872857422866176e+00
	3.588865877852982e+00
	5.000000000000000e+00
	1.672495306156270e+00
	1.934875899586608e+00
	4.508806281302711e+00
	4.173300444317714e-01
	1.131255244028516e+00
	1.676764269496723e+00
	4.997451909183473e+00
	2.147333839892055e+00
	2.792291154848130e+00
	2.872987318876365e+00
	2.872188317284035e+00
	2.147365241928765e+00
	2.786306376118735e+00
	1.712196356685456e+00
	1.672637613208426e+00
	2.873998452986827e+00
	1.676730134167245e+00
	4.508757161930841e+00
	1.130868369552919e+00
	2.786338031477468e+00
	1.750097493535022e+00
	2.361039433101647e+00
	-4.492330455670641e-03
18		2.056000000000000e+00
	1.742954993468347e+00
	1.712196356684532e+00
	2.361385894533029e+00
	1.109876588143643e+00
	1.750905264197939e+00
	2.786338031481664e+00
	1.250726871091862e+00
	2.872857422866061e+00
	3.588865877852869e+00
	5.000000000000000e+00
	1.672495306156636e+00
	1.934875899586581e+00
	4.508806281305230e+00
	4.173300444324539e-01
	1.131255244028931e+00
	1.676764269497089e+00
	4.997451909182994e+00
	2.147333839891934e+00
	2.792291154848010e+00
	2.872987318876251e+00
	2.872188317283920e+00
	2.147365241928644e+00
	2.786306376118607e+00
	1.712196356685874e+00
	1.672637613208792e+00
	2.873998452986713e+00
	1.676730134167611e+00
	4.508757161933360e+00
	1.130868369553333e+00
	2.786338031477339e+00
	1.750097493535568e+00
	2.361039433102023e+00
	-4.492330455670587e-03
19		2.256000000000000e+00
	1.742954993468193e+00
	1.712196356684395e+00
	2.361385894532873e+00
	1.109876588143535e+00
	1.750905264197831e+00
	2.786338031481338e+00
	1.250726871091864e+00
	2.872857422865705e+00
	3.588865877852526e+00
	5.000000000000000e+00
	1.672495306156469e+00
	1.934875899586583e+00
	4.508806281305940e+00
	4.173300444291734e-01
	1.131255244028831e+00
	1.676764269496921e+00
	4.997451909183521e+00
	2.147333839891580e+00
	2.792291154847661e+00
	2.872987318875894e+00
	2.872188317283564e+00
	2.147365241928290e+00
	2.786306376118281e+00
	1.712196356685737e+00
	1.672637613208626e+00
	2.873998452986356e+00
	1.676730134167444e+00
	4.508757161934071e+00
	1.130868369553234e+00
	2.786338031477013e+00
	1.750097493535460e+00
	2.361039433101866e+00
	-4.492330455670769e-03
20		2.456000000000000e+00
	1.742954993467763e+00
	1.712196356683917e+00
	2.361385894532436e+00
	1.109876588142999e+00
	1.750905264197245e+00
	2.786338031481696e+00
	1.250726871091888e+00
	2.872857422866005e+00
	3.588865877852816e+00
	5.000000000000000e+00
	1.672495306156041e+00
	1.934875899586607e+00
	4.508806281303873e+00
	4.173300444317372e-01
	1.131255244028340e+00
	1.676764269496494e+00
	4.997451909182551e+00
	2.147333839891884e+00
	2.792291154847961e+00
	2.872987318876195e+00
	2.872188317283864e+00
	2.147365241928593e+00
	2.786306376118639e+00
	1.712196356685259e+00
	1.672637613208198e+00
	2.873998452986656e+00
	1.676730134167016e+00
	4.508757161932003e+00
	1.130868369552743e+00
	2.786338031477372e+00
	1.750097493534874e+00
	2.361039433101430e+00
	-4.492330455671047e-03
21		2.656000000000001e+00
	1.742954993468096e+00
	1.712196356684245e+00
	2.361385894532774e+00
	1.109876588143294e+00
	1.750905264197544e+00
	2.786338031481172e+00
	1.250726871091887e+00
	2.872857422865614e+00
	3.588865877852435e+00
	5.000000000000000e+00
	1.672495306156385e+00
	1.934875899586605e+00
	4.508806281303247e+00
	4.173300444334682e-01
	1.131255244028622e+00
	1.676764269496839e+00
	4.997451909183224e+00
	2.147333839891485e+00
	2.792291154847567e+00
	2.872987318875802e+00
	2.872188317283471e+00
	2.147365241928195e+00
	2.786306376118115e+00
	1.712196356685587e+00
	1.672637613208541e+00
	2.873998452986264e+00
	1.676730134167361e+00
	4.508757161931378e+00
	1.130868369553025e+00
	2.786338031476848e+00
	1.750097493535173e+00
	2.361039433101768e+00
	-4.492330455671703e-03
22		2.856000000000001e+00
	1.742954993467228e+00
	1.712196356683392e+00
	2.361385894531894e+00
	1.109876588142459e+00
	1.750905264196733e+00
	2.786338031481454e+00
	1.250726871091863e+00
	2.872857422866007e+00
	3.588865877852818e+00
	5.000000000000000e+00
	1.672495306155497e+00
	1.934875899586581e+00
	4.508806281304288e+00
	4.173300444315702e-01
	1.131255244027767e+00
	1.676764269495947e+00
	4.997451909183304e+00
	2.147333839891882e+00
	2.792291154847959e+00
	2.872987318876197e+00
	2.872188317283866e+00
	2.147365241928591e+00
	2.786306376118397e+00
	1.712196356684733e+00
	1.672637613207654e+00
	2.873998452986659e+00
	1.676730134166470e+00
	4.508757161932419e+00
	1.130868369552170e+00
	2.786338031477130e+00
	1.750097493534362e+00
	2.361039433100887e+00
	-4.492330455670964e-03
23		3.056000000000001e+00
	1.742954993467618e+00
	1.712196356683776e+00
	2.361385894532290e+00
	1.109876588142841e+00
	1.750905264197113e+00
	2.786338031482135e+00
	1.250726871091883e+00
	2.872857422866562e+00
	3.588865877853356e+00
	5.000000000000000e+00
	1.672495306155896e+00
	1.934875899586602e+00
	4.508806281303766e+00
	4.173300444306682e-01
	1.131255244028149e+00
	1.676764269496348e+00
	4.997451909183117e+00
	2.147333839892443e+00
	2.792291154848514e+00
	2.872987318876753e+00
	2.872188317284422e+00
	2.147365241929152e+00
	2.786306376119078e+00
	1.712196356685117e+00
	1.672637613208052e+00
	2.873998452987214e+00
	1.676730134166871e+00
	4.508757161931896e+00
	1.130868369552552e+00
	2.786338031477811e+00
	1.750097493534742e+00
	2.361039433101284e+00
	-4.492330455670409e-03
24		3.256000000000001e+00
	1.742954993468002e+00
	1.712196356684185e+00
	2.361385894532679e+00
	1.109876588143272e+00
	1.750905264197557e+00
	2.786338031481757e+00
	1.250726871091890e+00
	2.872857422866123e+00
	3.588865877852930e+00
	5.000000000000000e+00
	1.672495306156283e+00
	1.934875899586608e+00
	4.508806281304665e+00
	4.173300444310462e-01
	1.131255244028569e+00
	1.676764269496737e+00
	4.997451909183469e+00
	2.147333839892005e+00
	2.792291154848080e+00
	2.872987318876313e+00
	2.872188317283982e+00
	2.147365241928714e+00
	2.786306376118700e+00
	1.712196356685527e+00
	1.672637613208440e+00
	2.873998452986775e+00
	1.676730134167259e+00
	4.508757161932795e+00
	1.130868369552972e+00
	2.786338031477432e+00
	1.750097493535186e+00
	2.361039433101673e+00
	-4.492330455670494e-03
25		3.456000000000001e+00
	1.742954993467932e+00
	1.712196356684092e+00
	2.361385894532607e+00
	1.109876588143162e+00
	1.750905264197415e+00
	2.786338031481396e+00
	1.250726871091863e+00
	2.872857422865819e+00
	3.588865877852635e+00
	5.000000000000000e+00
	1.672495306156216e+00
	1.934875899586581e+00
	4.508806281303762e+00
	4.173300444325543e-01
	1.131255244028491e+00
	1.676764269496669e+00
	4.997451909183097e+00
	2.147333839891689e+00
	2.792291154847769e+00
	2.872987318876008e+00
	2.872188317283677e+00
	2.147365241928399e+00
	2.786306376118338e+00
	1.712196356685434e+00
	1.672637613208373e+00
	2.873998452986470e+00
	1.676730134167191e+00
	4.508757161931893e+00
	1.130868369552894e+00
	2.786338031477071e+00
	1.750097493535044e+00
	2.361039433101601e+00
	-4.492330455671131e-03
26		3.656000000000001e+00
	1.742954993467612e+00
	1.712196356683775e+00
	2.361385894532284e+00
	1.109876588142878e+00
	1.750905264197138e+00
	2.786338031481892e+00
	1.250726871091888e+00
	2.872857422866264e+00
	3.588865877853066e+00
	5.000000000000000e+00
	1.672495306155884e+00
	1.934875899586607e+00
	4.508806281304803e+00
	4.173300444324437e-01
	1.131255244028206e+00
	1.676764269496336e+00
	4.997451909183228e+00
	2.147333839892148e+00
	2.792291154848222e+00
	2.872987318876453e+00
	2.872188317284123e+00
	2.147365241928858e+00
	2.786306376118834e+00
	1.712196356685117e+00
	1.672637613208041e+00
	2.873998452986915e+00
	1.676730134166858e+00
	4.508757161932934e+00
	1.130868369552609e+00
	2.786338031477567e+00
	1.750097493534767e+00
	2.361039433101277e+00
	-4.492330455670486e-03
27		3.856000000000002e+00
	1.742954993467805e+00
	1.712196356683971e+00
	2.361385894532479e+00
	1.109876588143050e+00
	1.750905264197326e+00
	2.786338031481933e+00
	1.250726871091887e+00
	2.872857422866375e+00
	3.588865877853177e+00
	5.000000000000000e+00
	1.672495306156082e+00
	1.934875899586605e+00
	4.508806281304196e+00
	4.173300444325725e-01
	1.131255244028356e+00
	1.676764269496533e+00
	4.997451909183306e+00
	2.147333839892251e+00
	2.792291154848324e+00
	2.872987318876565e+00
	2.872188317284234e+00
	2.147365241928961e+00
	2.786306376118876e+00
	1.712196356685313e+00
	1.672637613208238e+00
	2.873998452987027e+00
	1.676730134167055e+00
	4.508757161932326e+00
	1.130868369552759e+00
	2.786338031477609e+00
	1.750097493534955e+00
	2.361039433101473e+00
	-4.492330455670308e-03
28		4.056000000000002e+00
	1.742954993467758e+00
	1.712196356683912e+00
	2.361385894532431e+00
	1.109876588142992e+00
	1.750905264197239e+00
	2.786338031481280e+00
	1.250726871091888e+00
	2.872857422865879e+00
	3.588865877852688e+00
	5.000000000000000e+00
	1.672495306156039e+00
	1.934875899586607e+00
	4.508806281304022e+00
	4.173300444324988e-01
	1.131255244028331e+00
	1.676764269496489e+00
	4.997451909182912e+00
	2.147333839891750e+00
	2.792291154847828e+00
	2.872987318876068e+00
	2.872188317283737e+00
	2.147365241928460e+00
	2.786306376118223e+00
	1.712196356685254e+00
	1.672637613208195e+00
	2.873998452986530e+00
	1.676730134167012e+00
	4.508757161932152e+00
	1.130868369552734e+00
	2.786338031476956e+00
	1.750097493534868e+00
	2.361039433101425e+00
	-4.492330455671172e-03
29		4.256000000000002e+00
	1.742954993468235e+00
	1.712196356684445e+00
	2.361385894532916e+00
	1.109876588143569e+00
	1.750905264197883e+00
	2.786338031480884e+00
	1.250726871091888e+00
	2.872857422865300e+00
	3.588865877852132e+00
	5.000000000000000e+00
	1.672495306156512e+00
	1.934875899586607e+00
	4.508806281305954e+00
	4.173300444319961e-01
	1.131255244028842e+00
	1.676764269496965e+00
	4.997451909183080e+00
	2.147333839891178e+00
	2.792291154847263e+00
	2.872987318875489e+00
	2.872188317283159e+00
	2.147365241927887e+00
	2.786306376117827e+00
	1.712196356685787e+00
	1.672637613208669e+00
	2.873998452985951e+00
	1.676730134167488e+00
	4.508757161934085e+00
	1.130868369553245e+00
	2.786338031476560e+00
	1.750097493535512e+00
	2.361039433101909e+00
	-4.492330455671283e-03
30		4.456000000000002e+00
	1.742954993468395e+00
	1.712196356684542e+00
	2.361385894533077e+00
	1.109876588143555e+00
	1.750905264197782e+00
	2.786338031482104e+00
	1.250726871091866e+00
	2.872857422866466e+00
	3.588865877853262e+00
	5.000000000000000e+00
	1.672495306156700e+00
	1.934875899586584e+00
	4.508806281301869e+00
	4.173300444347197e-01
	1.131255244028904e+00
	1.676764269497155e+00
	4.997451909183066e+00
	2.147333839892354e+00
	2.792291154848426e+00
	2.872987318876656e+00
	2.872188317284326e+00
	2.147365241929064e+00
	2.786306376119047e+00
	1.712196356685884e+00
	1.672637613208856e+00
	2.873998452987118e+00
	1.676730134167677e+00
	4.508757161929999e+00
	1.130868369553306e+00
	2.786338031477780e+00
	1.750097493535412e+00
	2.361039433102071e+00
	-4.492330455670624e-03
31		4.656000000000002e+00
	1.742954993467685e+00
	1.712196356683896e+00
	2.361385894532358e+00
	1.109876588143023e+00
	1.750905264197327e+00
	2.786338031481571e+00
	1.250726871091864e+00
	2.872857422866032e+00
	3.588865877852838e+00
	5.000000000000000e+00
	1.672495306155951e+00
	1.934875899586582e+00
	4.508806281306583e+00
	4.173300444302876e-01
	1.131255244028309e+00
	1.676764269496402e+00
	4.997451909183346e+00
	2.147333839891910e+00
	2.792291154847987e+00
	2.872987318876222e+00
	2.872188317283891e+00
	2.147365241928619e+00
	2.786306376118514e+00
	1.712196356685238e+00
	1.672637613208108e+00
	2.873998452986683e+00
	1.676730134166924e+00
	4.508757161934714e+00
	1.130868369552711e+00
	2.786338031477247e+00
	1.750097493534956e+00
	2.361039433101352e+00
	-4.492330455670545e-03
32		4.856000000000003e+00
	1.742954993467488e+00
	1.712196356683659e+00
	2.361385894532157e+00
	1.109876588142751e+00
	1.750905264197018e+00
	2.786338031482124e+00
	1.250726871091884e+00
	2.872857422866434e+00
	3.588865877853233e+00
	5.000000000000000e+00
	1.672495306155759e+00
	1.934875899586602e+00
	4.508806281304391e+00
	4.173300444310715e-01
	1.131255244028073e+00
	1.676764269496209e+00
	4.997451909182808e+00
	2.147333839892314e+00
	2.792291154848386e+00
	2.872987318876624e+00
	2.872188317284293e+00
	2.147365241929024e+00
	2.786306376119067e+00
	1.712196356685000e+00
	1.672637613207915e+00
	2.873998452987085e+00
	1.676730134166731e+00
	4.508757161932522e+00
	1.130868369552476e+00
	2.786338031477800e+00
	1.750097493534647e+00
	2.361039433101151e+00
	-4.492330455670478e-03
33		5.056000000000003e+00
	1.742954993467605e+00
	1.712196356683803e+00
	2.361385894532276e+00
	1.109876588142942e+00
	1.750905264197249e+00
	2.786338031482012e+00
	1.250726871091886e+00
	2.872857422866353e+00
	3.588865877853153e+00
	5.000000000000000e+00
	1.672495306155870e+00
	1.934875899586605e+00
	4.508806281306299e+00
	4.173300444290104e-01
	1.131255244028225e+00
	1.676764269496321e+00
	4.997451909183268e+00
	2.147333839892237e+00
	2.792291154848310e+00
	2.872987318876543e+00
	2.872188317284212e+00
	2.147365241928946e+00
	2.786306376118955e+00
	1.712196356685145e+00
	1.672637613208026e+00
	2.873998452987005e+00
	1.676730134166843e+00
	4.508757161934430e+00
	1.130868369552628e+00
	2.786338031477688e+00
	1.750097493534879e+00
	2.361039433101270e+00
	-4.492330455670355e-03
34		5.256000000000003e+00
	1.742954993467589e+00
	1.712196356683755e+00
	2.361385894532260e+00
	1.109876588142824e+00
	1.750905264197107e+00
	2.786338031480779e+00
	1.250726871091888e+00
	2.872857422865386e+00
	3.588865877852214e+00
	5.000000000000000e+00
	1.672495306155865e+00
	1.934875899586606e+00
	4.508806281303919e+00
	4.173300444331609e-01
	1.131255244028122e+00
	1.676764269496315e+00
	4.997451909183396e+00
	2.147333839891254e+00
	2.792291154847339e+00
	2.872987318875575e+00
	2.872188317283244e+00
	2.147365241927964e+00
	2.786306376117722e+00
	1.712196356685096e+00
	1.672637613208022e+00
	2.873998452986037e+00
	1.676730134166837e+00
	4.508757161932049e+00
	1.130868369552525e+00
	2.786338031476454e+00
	1.750097493534735e+00
	2.361039433101254e+00
	-4.492330455671585e-03
35		5.456000000000003e+00
	1.742954993467541e+00
	1.712196356683679e+00
	2.361385894532211e+00
	1.109876588142718e+00
	1.750905264196953e+00
	2.786338031480805e+00
	1.250726871091886e+00
	2.872857422865319e+00
	3.588865877852146e+00
	5.000000000000000e+00
	1.672495306155824e+00
	1.934875899586605e+00
	4.508806281303016e+00
	4.173300444318802e-01
	1.131255244028061e+00
	1.676764269496275e+00
	4.997451909183484e+00
	2.147333839891200e+00
	2.792291154847285e+00
	2.872987318875508e+00
	2.872188317283177e+00
	2.147365241927910e+00
	2.786306376117748e+00
	1.712196356685021e+00
	1.672637613207981e+00
	2.873998452985970e+00
	1.676730134166797e+00
	4.508757161931147e+00
	1.130868369552464e+00
	2.786338031476481e+00
	1.750097493534582e+00
	2.361039433101205e+00
	-4.492330455671974e-03
36		5.656000000000003e+00
	1.742954993467603e+00
	1.712196356683734e+00
	2.361385894532273e+00
	1.109876588142763e+00
	1.750905264196998e+00
	2.786338031482304e+00
	1.250726871091888e+00
	2.872857422866662e+00
	3.588865877853455e+00
	5.000000000000000e+00
	1.672495306155885e+00
	1.934875899586607e+00
	4.508806281302732e+00
	4.173300444322083e-01
	1.131255244028105e+00
	1.676764269496335e+00
	4.997451909183531e+00
	2.147333839892546e+00
	2.792291154848616e+00
	2.872987318876852e+00
	2.872188317284521e+00
	2.147365241929256e+00
	2.786306376119247e+00
	1.712196356685076e+00
	1.672637613208042e+00
	2.873998452987314e+00
	1.676730134166857e+00
	4.508757161930863e+00