Title: kicad schematic
Date: Tue Nov 18 17:43:43  2025
Plotname: Transient Analysis
Flags: real
No. Variables: 22
No. Points: 0       
Variables:
