Title: kicad schematic
Date: Sun Dec 14 19:28:43  2025
Plotname: Transient Analysis
Flags: real
No. Variables: 139
No. Points: 59      
Variables:
	0	time	time
	1	v(x1.x4.net-_d4-pad1_)	voltage
	2	v(x1.x4.net-_d5-pad2_)	voltage
	3	v(x1.x4.net-_q5-pad2_)	voltage
	4	v(unconnected-_x1-pad12_)	voltage
	5	v(x1.x4.net-_q7-pad1_)	voltage
	6	v(x1.x4.net-_q12-pad2_)	voltage
	7	v(unconnected-_x1-pad11_)	voltage
	8	v(x1.x4.net-_q2-pad3_)	voltage
	9	v(unconnected-_x1-pad13_)	voltage
	10	v(x1.x4.net-_d6-pad1_)	voltage
	11	v(x1.x4.net-_d2-pad1_)	voltage
	12	v(x1.x4.net-_q2-pad1_)	voltage
	13	v(x1.x4.net-_q2-pad2_)	voltage
	14	v(x1.x4.net-_q1-pad1_)	voltage
	15	v(x1.x4.net-_q1-pad2_)	voltage
	16	v(x1.x4.net-_q10-pad1_)	voltage
	17	v(x1.x4.net-_q10-pad3_)	voltage
	18	v(x1.x4.net-_q5-pad1_)	voltage
	19	v(x1.x4.net-_q6-pad3_)	voltage
	20	v(x1.x2.net-_d4-pad1_)	voltage
	21	v(x1.x2.net-_d5-pad2_)	voltage
	22	v(x1.x2.net-_q5-pad2_)	voltage
	23	v(2a)	voltage
	24	v(x1.x2.net-_q7-pad1_)	voltage
	25	v(x1.x2.net-_q12-pad2_)	voltage
	26	v(2y)	voltage
	27	v(x1.x2.net-_q2-pad3_)	voltage
	28	v(2g)	voltage
	29	v(x1.x2.net-_d6-pad1_)	voltage
	30	v(x1.x2.net-_d2-pad1_)	voltage
	31	v(x1.x2.net-_q2-pad1_)	voltage
	32	v(x1.x2.net-_q2-pad2_)	voltage
	33	v(x1.x2.net-_q1-pad1_)	voltage
	34	v(x1.x2.net-_q1-pad2_)	voltage
	35	v(x1.x2.net-_q10-pad1_)	voltage
	36	v(x1.x2.net-_q10-pad3_)	voltage
	37	v(x1.x2.net-_q5-pad1_)	voltage
	38	v(x1.x2.net-_q6-pad3_)	voltage
	39	v(x1.x1.net-_d4-pad1_)	voltage
	40	v(x1.x1.net-_d5-pad2_)	voltage
	41	v(x1.x1.net-_q5-pad2_)	voltage
	42	v(1a)	voltage
	43	v(x1.x1.net-_q7-pad1_)	voltage
	44	v(x1.x1.net-_q12-pad2_)	voltage
	45	v(1y)	voltage
	46	v(x1.x1.net-_q2-pad3_)	voltage
	47	v(1g)	voltage
	48	v(x1.x1.net-_d6-pad1_)	voltage
	49	v(x1.x1.net-_d2-pad1_)	voltage
	50	v(x1.x1.net-_q2-pad1_)	voltage
	51	v(x1.x1.net-_q2-pad2_)	voltage
	52	v(x1.x1.net-_q1-pad1_)	voltage
	53	v(x1.x1.net-_q1-pad2_)	voltage
	54	v(x1.x1.net-_q10-pad1_)	voltage
	55	v(x1.x1.net-_q10-pad3_)	voltage
	56	v(x1.x1.net-_q5-pad1_)	voltage
	57	v(x1.x1.net-_q6-pad3_)	voltage
	58	v(x1.x3.net-_d4-pad1_)	voltage
	59	v(x1.x3.net-_d5-pad2_)	voltage
	60	v(x1.x3.net-_q5-pad2_)	voltage
	61	v(unconnected-_x1-pad9_)	voltage
	62	v(x1.x3.net-_q7-pad1_)	voltage
	63	v(x1.x3.net-_q12-pad2_)	voltage
	64	v(unconnected-_x1-pad8_)	voltage
	65	v(x1.x3.net-_q2-pad3_)	voltage
	66	v(unconnected-_x1-pad10_)	voltage
	67	v(x1.x3.net-_d6-pad1_)	voltage
	68	v(x1.x3.net-_d2-pad1_)	voltage
	69	v(x1.x3.net-_q2-pad1_)	voltage
	70	v(x1.x3.net-_q2-pad2_)	voltage
	71	v(x1.x3.net-_q1-pad1_)	voltage
	72	v(x1.x3.net-_q1-pad2_)	voltage
	73	v(x1.x3.net-_q10-pad1_)	voltage
	74	v(x1.x3.net-_q10-pad3_)	voltage
	75	v(x1.x3.net-_q5-pad1_)	voltage
	76	v(x1.x3.net-_q6-pad3_)	voltage
	77	v(net-_x1-pad14_)	voltage
	78	v(q.x1.q.x3.q8#collCX)	voltage
	79	v(q.x1.q.x3.q5#collCX)	voltage
	80	v(q.x1.q.x3.q6#collCX)	voltage
	81	v(q.x1.q.x3.q10#collCX)	voltage
	82	v(q.x1.q.x3.q11#collCX)	voltage
	83	v(q.x1.q.x3.q1#collCX)	voltage
	84	v(q.x1.q.x3.q13#collCX)	voltage
	85	v(q.x1.q.x3.q3#collCX)	voltage
	86	v(q.x1.q.x3.q2#collCX)	voltage
	87	v(q.x1.q.x3.q4#collCX)	voltage
	88	v(q.x1.q.x3.q9#collCX)	voltage
	89	v(q.x1.q.x3.q12#collCX)	voltage
	90	v(q.x1.q.x3.q7#collCX)	voltage
	91	v(q.x1.q.x1.q8#collCX)	voltage
	92	v(q.x1.q.x1.q5#collCX)	voltage
	93	v(q.x1.q.x1.q6#collCX)	voltage
	94	v(q.x1.q.x1.q10#collCX)	voltage
	95	v(q.x1.q.x1.q11#collCX)	voltage
	96	v(q.x1.q.x1.q1#collCX)	voltage
	97	v(q.x1.q.x1.q13#collCX)	voltage
	98	v(q.x1.q.x1.q3#collCX)	voltage
	99	v(q.x1.q.x1.q2#collCX)	voltage
	100	v(q.x1.q.x1.q4#collCX)	voltage
	101	v(q.x1.q.x1.q9#collCX)	voltage
	102	v(q.x1.q.x1.q12#collCX)	voltage
	103	v(q.x1.q.x1.q7#collCX)	voltage
	104	v(q.x1.q.x2.q8#collCX)	voltage
	105	v(q.x1.q.x2.q5#collCX)	voltage
	106	v(q.x1.q.x2.q6#collCX)	voltage
	107	v(q.x1.q.x2.q10#collCX)	voltage
	108	v(q.x1.q.x2.q11#collCX)	voltage
	109	v(q.x1.q.x2.q1#collCX)	voltage
	110	v(q.x1.q.x2.q13#collCX)	voltage
	111	v(q.x1.q.x2.q3#collCX)	voltage
	112	v(q.x1.q.x2.q2#collCX)	voltage
	113	v(q.x1.q.x2.q4#collCX)	voltage
	114	v(q.x1.q.x2.q9#collCX)	voltage
	115	v(q.x1.q.x2.q12#collCX)	voltage
	116	v(q.x1.q.x2.q7#collCX)	voltage
	117	v(q.x1.q.x4.q8#collCX)	voltage
	118	v(q.x1.q.x4.q5#collCX)	voltage
	119	v(q.x1.q.x4.q6#collCX)	voltage
	120	v(q.x1.q.x4.q10#collCX)	voltage
	121	v(q.x1.q.x4.q11#collCX)	voltage
	122	v(q.x1.q.x4.q1#collCX)	voltage
	123	v(q.x1.q.x4.q13#collCX)	voltage
	124	v(q.x1.q.x4.q3#collCX)	voltage
	125	v(q.x1.q.x4.q2#collCX)	voltage
	126	v(q.x1.q.x4.q4#collCX)	voltage
	127	v(q.x1.q.x4.q9#collCX)	voltage
	128	v(q.x1.q.x4.q12#collCX)	voltage
	129	v(q.x1.q.x4.q7#collCX)	voltage
	130	i(v_2a1)	current
	131	i(v_2g1)	current
	132	i(v_1a1)	current
	133	i(v_1g1)	current
	134	i(v1)	current
	135	i(v.x1.v.x3.v1)	current
	136	i(v.x1.v.x1.v1)	current
	137	i(v.x1.v.x2.v1)	current
	138	i(v.x1.v.x4.v1)	current
Values:
0		0.000000000000000e+00
	2.057232934279953e+00
	5.000000000000000e+00
	2.142878794954690e+00
	1.448725097245469e+00
	3.006300972276262e-01
	1.949567110819835e-01
	4.999262434292445e+00
	4.436590650100219e-02
	1.288048683013432e+00
	5.864212504038424e-01
	2.298960206723004e+00
	3.091986986542994e+00
	5.963464321999530e-01
	1.287174755323398e+00
	1.980045935097058e+00
	4.973645023063813e+00
	1.442679656929918e+00
	1.452705655555657e+00
	7.973805732078529e-01
	4.809807448128426e+00
	5.000000000000000e+00
	4.372214834812176e+00
	5.000000000000000e+00
	1.260434283599365e+00
	6.594124404746922e-01
	3.502252523732538e+00
	8.081422280966172e-02
	5.000000000000000e+00
	6.415162804241148e-01
	4.999997594004119e+00
	4.874712560252537e+00
	6.477557392765866e-01
	1.430988464862733e+00
	2.127193846644083e+00
	4.748032456023227e+00
	4.167102055649550e+00
	3.724906900083437e+00
	2.917067888652596e+00
	6.264221327865829e-01
	5.000000000000000e+00
	7.083642009981267e-01
	0.000000000000000e+00
	8.356239306901625e-02
	1.156108292373951e-02
	2.500680108593350e-05
	8.001441402090435e-02
	5.000000000000000e+00
	6.415162030678608e-01
	9.073375396946477e-01
	1.720387436911588e+00
	6.477556432853433e-01
	1.430988381560300e+00
	2.127193764431929e+00
	4.998442194362094e+00
	8.555201210653329e-02
	4.058991089255648e-03
	1.467471493948051e-10
	2.057232934279959e+00
	5.000000000000000e+00
	2.142878794954692e+00
	1.448725097245470e+00
	3.006300972276046e-01
	1.949567110819843e-01
	4.999262457489720e+00
	4.436590650100172e-02
	1.288048683013433e+00
	5.864212504038422e-01
	2.298960206723009e+00
	3.091986986543001e+00
	5.963464321999529e-01
	1.287174755323398e+00
	1.980045935097057e+00
	4.973645023063814e+00
	1.442679656929923e+00
	1.452705655555659e+00
	7.973805732078548e-01
	5.000000000000000e+00
	1.456230960768194e-01
	1.452713013051945e+00
	1.447290998786185e+00
	4.973334964520131e+00
	4.973645023055306e+00
	1.287929741342176e+00
	5.953105218029200e-01
	4.849362945417353e+00
	3.091959501233294e+00
	1.448725097242533e+00
	2.057232934275270e+00
	4.999262457451248e+00
	4.556370983770510e-01
	8.356239306883308e-02
	4.058991089266001e-03
	4.458953260914822e-15
	4.998423867247273e+00
	4.998442194351763e+00
	1.436041443361136e+00
	6.467319900191597e-01
	4.768928492444295e+00
	1.720337832130269e+00
	1.295764746852772e-13
	6.264221327851774e-01
	2.500680109874596e-05
	8.356239306883308e-02
	5.812202664323120e-02
	3.726011637565010e+00
	4.795996119255046e+00
	4.747150160823466e+00
	4.745950427176201e+00
	1.436041526519007e+00
	6.467320757167435e-01
	4.999999999994872e+00
	4.874662445276373e+00
	4.999999999989731e+00
	4.809622053945255e+00
	3.500510544031032e+00
	2.462747737593062e+00
	1.456230960768500e-01
	1.452713013051943e+00
	1.447290998786183e+00
	4.973334964520131e+00
	4.973645023055306e+00
	1.287929741342176e+00
	5.953105218029201e-01
	4.849362945417361e+00
	3.091959501233287e+00
	1.448725097242532e+00
	2.057232934275264e+00
	4.999262434253973e+00
	4.556370983770637e-01
	-1.407265130900790e+00
	-4.334862619369356e-03
	2.397800639928200e-01
	-4.334862743378076e-03
	0.000000000000000e+00
	-1.585790180072317e-01
	-2.415904280776426e-01
	-5.103839378847473e-03
	-1.585790180072237e-01
1		1.000000000000000e-02
	2.057232934280155e+00
	5.000000000000000e+00
	2.142878794954893e+00
	1.448725097245677e+00
	3.006300972272951e-01
	1.949567110819248e-01
	4.999262029914829e+00
	4.436590650099784e-02
	1.288048683013420e+00
	5.864212504038347e-01
	2.298960206723375e+00
	3.091986986543422e+00
	5.963464321999461e-01
	1.287174755323386e+00
	1.980045935097045e+00
	4.973645023063828e+00
	1.442679656930075e+00
	1.452705655555865e+00
	7.973805732079594e-01
	4.809807448128220e+00
	5.000000000000000e+00
	4.372214834812264e+00
	5.000000000000000e+00
	1.260434283599351e+00
	6.594124404746751e-01
	3.502252523732349e+00
	8.081422280966094e-02
	5.000000000000000e+00
	6.415162804241120e-01
	4.999997572779026e+00
	4.874712560254758e+00
	6.477557392765838e-01
	1.430988464862733e+00
	2.127193846644086e+00
	4.748032456023259e+00
	4.167102055649349e+00
	3.724906900083522e+00
	2.917067888652688e+00
	6.264221327865833e-01
	5.000000000000000e+00
	7.083642009981270e-01
	0.000000000000000e+00
	8.356239209106409e-02
	1.156108292373846e-02
	2.500680108600373e-05
	8.001441402090259e-02
	5.000000000000000e+00
	6.415162030678592e-01
	9.073375396947460e-01
	1.720387436911714e+00
	6.477556432853416e-01
	1.430988381560294e+00
	2.127193764431922e+00
	4.998442194362080e+00
	8.555201210653440e-02
	4.058991089255605e-03
	1.467460451632273e-10
	2.057232934280172e+00
	5.000000000000000e+00
	2.142878794954915e+00
	1.448725097245698e+00
	3.006300972272049e-01
	1.949567110819140e-01
	4.999261990021976e+00
	4.436590650099945e-02
	1.288048683013438e+00
	5.864212504038390e-01
	2.298960206723427e+00
	3.091986986543483e+00
	5.963464321999483e-01
	1.287174755323404e+00
	1.980045935097065e+00
	4.973645023063822e+00
	1.442679656930089e+00
	1.452705655555886e+00
	7.973805732079728e-01
	5.000000000000000e+00
	1.456230960761811e-01
	1.452713013052171e+00
	1.447290998786407e+00
	4.973334964520139e+00
	4.973645023055315e+00
	1.287929741342182e+00
	5.953105218029155e-01
	4.849362945417104e+00
	3.091959501233778e+00
	1.448725097242761e+00
	2.057232934275483e+00
	4.999261989983505e+00
	4.556370983768904e-01
	8.356239209088090e-02
	4.058991089265959e-03
	4.458953260882769e-15
	4.998423867247259e+00
	4.998442194351749e+00
	1.436041443361129e+00
	6.467319900191580e-01
	4.768928492444144e+00
	1.720337832130396e+00
	1.295764746839321e-13
	6.264221327851780e-01
	2.500680109881620e-05
	8.356239209088090e-02
	5.812202664323087e-02
	3.726011637565094e+00
	4.795996119255035e+00
	4.747150160823498e+00
	4.745950427176233e+00
	1.436041526519008e+00
	6.467320757167406e-01
	4.999999999994871e+00
	4.874662445278593e+00
	4.999999999989730e+00
	4.809622053945048e+00
	3.500510544030845e+00
	2.462747737593033e+00
	1.456230960763087e-01
	1.452713013052150e+00
	1.447290998786386e+00
	4.973334964520143e+00
	4.973645023055320e+00
	1.287929741342164e+00
	5.953105218029132e-01
	4.849362945417141e+00
	3.091959501233716e+00
	1.448725097242740e+00
	2.057232934275465e+00
	4.999262029876357e+00
	4.556370983769430e-01
	-1.407265130900796e+00
	-4.334862619369578e-03
	2.397800639929675e-01
	-4.334862743378048e-03
	0.000000000000000e+00
	-1.585790180074790e-01
	-2.415904280777936e-01
	-5.103839378847679e-03
	-1.585790180074400e-01
2		2.000000000000000e-02
	2.057232934280177e+00
	5.000000000000000e+00
	2.142878794954929e+00
	1.448725097245711e+00
	3.006300972272524e-01
	1.949567110820073e-01
	4.999261996930643e+00
	4.436590650100056e-02
	1.288048683013437e+00
	5.864212504038395e-01
	2.298960206723434e+00
	3.091986986543486e+00
	5.963464321999496e-01
	1.287174755323402e+00
	1.980045935097063e+00
	4.973645023063871e+00
	1.442679656930135e+00
	1.452705655555901e+00
	7.973805732079768e-01
	4.809807448128211e+00
	5.000000000000000e+00
	4.372214834811683e+00
	5.000000000000000e+00
	1.260434283599359e+00
	6.594124404746817e-01
	3.502252523732336e+00
	8.081422280966166e-02
	5.000000000000000e+00
	6.415162804241127e-01
	4.999997558161258e+00
	4.874712560254396e+00
	6.477557392765846e-01
	1.430988464862729e+00
	2.127193846644080e+00
	4.748032456023213e+00
	4.167102055649342e+00
	3.724906900082923e+00
	2.917067888652090e+00
	6.264221327865865e-01
	5.000000000000000e+00
	7.083642009981274e-01
	0.000000000000000e+00
	8.356239107898154e-02
	1.156108292373870e-02
	2.500680108600377e-05
	8.001441402090595e-02
	5.000000000000000e+00
	6.415162030678638e-01
	9.073375396946811e-01
	1.720387436911633e+00
	6.477556432853462e-01
	1.430988381560307e+00
	2.127193764431937e+00
	4.998442194362079e+00
	8.555201210653671e-02
	4.058991089255607e-03
	1.467460050462249e-10
	2.057232934280028e+00
	5.000000000000000e+00
	2.142878794954783e+00
	1.448725097245563e+00
	3.006300972274785e-01
	1.949567110819912e-01
	4.999261972970348e+00
	4.436590650099990e-02
	1.288048683013437e+00
	5.864212504038400e-01
	2.298960206723173e+00
	3.091986986543195e+00
	5.963464321999491e-01
	1.287174755323403e+00
	1.980045935097063e+00
	4.973645023063876e+00
	1.442679656929990e+00
	1.452705655555753e+00
	7.973805732079017e-01
	5.000000000000000e+00
	1.456230960766062e-01
	1.452713013052038e+00
	1.447290998786275e+00
	4.973334964520193e+00
	4.973645023055369e+00
	1.287929741342181e+00
	5.953105218029162e-01
	4.849362945417257e+00
	3.091959501233490e+00
	1.448725097242626e+00
	2.057232934275339e+00
	4.999261972931876e+00
	4.556370983770112e-01
	8.356239107879836e-02
	4.058991089265961e-03
	4.458953260946963e-15
	4.998423867247258e+00
	4.998442194351748e+00
	1.436041443361143e+00
	6.467319900191627e-01
	4.768928492444247e+00
	1.720337832130315e+00
	1.295764746878612e-13
	6.264221327851812e-01
	2.500680109881624e-05
	8.356239107879836e-02
	5.812202664323617e-02
	3.726011637564496e+00
	4.795996119255094e+00
	4.747150160823453e+00
	4.745950427176187e+00
	1.436041526519003e+00
	6.467320757167415e-01
	4.999999999994871e+00
	4.874662445278231e+00
	4.999999999989730e+00
	4.809622053945039e+00
	3.500510544030831e+00
	2.462747737593043e+00
	1.456230960762365e-01
	1.452713013052187e+00
	1.447290998786419e+00
	4.973334964520189e+00
	4.973645023055364e+00
	1.287929741342180e+00
	5.953105218029168e-01
	4.849362945417115e+00
	3.091959501233780e+00
	1.448725097242774e+00
	2.057232934275487e+00
	4.999261996892171e+00
	4.556370983769302e-01
	-1.407265130900716e+00
	-4.334862619369412e-03
	2.397800639928703e-01
	-4.334862743378270e-03
	0.000000000000000e+00
	-1.585790180073265e-01
	-2.415904280776905e-01
	-5.103839378847832e-03
	-1.585790180074675e-01
3		4.000000000000000e-02
	2.057232934280041e+00
	5.000000000000000e+00
	2.142878794954794e+00
	1.448725097245573e+00
	3.006300972274492e-01
	1.949567110820074e-01
	4.999262013233873e+00
	4.436590650099632e-02
	1.288048683013433e+00
	5.864212504038350e-01
	2.298960206723192e+00
	3.091986986543213e+00
	5.963464321999438e-01
	1.287174755323399e+00
	1.980045935097059e+00
	4.973645023063868e+00
	1.442679656930009e+00
	1.452705655555762e+00
	7.973805732079065e-01
	4.809807448128220e+00
	5.000000000000000e+00
	4.372214834812246e+00
	5.000000000000000e+00
	1.260434283599366e+00
	6.594124404746889e-01
	3.502252523732346e+00
	8.081422280966205e-02
	5.000000000000000e+00
	6.415162804241132e-01
	4.999997580764791e+00
	4.874712560254451e+00
	6.477557392765851e-01
	1.430988464862736e+00
	2.127193846644087e+00
	4.748032456023225e+00
	4.167102055649353e+00
	3.724906900083505e+00
	2.917067888652668e+00
	6.264221327865835e-01
	5.000000000000000e+00
	7.083642009981287e-01
	0.000000000000000e+00
	8.356238902112054e-02
	1.156108292373829e-02
	2.500680108600360e-05
	8.001441402090541e-02
	5.000000000000000e+00
	6.415162030678625e-01
	9.073375396946988e-01
	1.720387436911656e+00
	6.477556432853453e-01
	1.430988381560303e+00
	2.127193764431932e+00
	4.998442194362080e+00
	8.555201210653428e-02
	4.058991089255557e-03
	1.467459637507350e-10
	2.057232934280034e+00
	5.000000000000000e+00
	2.142878794954783e+00
	1.448725097245562e+00
	3.006300972275007e-01
	1.949567110820014e-01
	4.999261980573242e+00
	4.436590650100065e-02
	1.288048683013425e+00
	5.864212504038387e-01
	2.298960206723165e+00
	3.091986986543185e+00
	5.963464321999501e-01
	1.287174755323391e+00
	1.980045935097050e+00
	4.973645023063868e+00
	1.442679656930001e+00
	1.452705655555751e+00
	7.973805732079000e-01
	5.000000000000000e+00
	1.456230960766366e-01
	1.452713013052036e+00
	1.447290998786274e+00
	4.973334964520186e+00
	4.973645023055361e+00
	1.287929741342168e+00
	5.953105218029172e-01
	4.849362945417268e+00
	3.091959501233479e+00
	1.448725097242625e+00
	2.057232934275345e+00
	4.999261980534770e+00
	4.556370983770253e-01
	8.356238902093736e-02
	4.058991089265911e-03
	4.458953260875850e-15
	4.998423867247259e+00
	4.998442194351749e+00
	1.436041443361139e+00
	6.467319900191617e-01
	4.768928492444218e+00
	1.720337832130337e+00
	1.295764746822519e-13
	6.264221327851782e-01
	2.500680109881606e-05
	8.356238902093736e-02
	5.812202664323057e-02
	3.726011637565078e+00
	4.795996119255039e+00
	4.747150160823463e+00
	4.745950427176199e+00
	1.436041526519011e+00
	6.467320757167421e-01
	4.999999999994871e+00
	4.874662445278285e+00
	4.999999999989730e+00
	4.809622053945048e+00
	3.500510544030841e+00
	2.462747737593065e+00
	1.456230960765685e-01
	1.452713013052048e+00
	1.447290998786285e+00
	4.973334964520186e+00
	4.973645023055361e+00
	1.287929741342177e+00
	5.953105218029109e-01
	4.849362945417250e+00
	3.091959501233507e+00
	1.448725097242636e+00
	2.057232934275352e+00
	4.999262013195402e+00
	4.556370983769914e-01
	-1.407265130900795e+00
	-4.334862619369523e-03
	2.397800639928968e-01
	-4.334862743378104e-03
	0.000000000000000e+00
	-1.585790180073150e-01
	-2.415904280777199e-01
	-5.103839378847802e-03
	-1.585790180073328e-01
4		8.000000000000000e-02
	2.057232934279972e+00
	5.000000000000000e+00
	2.142878794954708e+00
	1.448725097245487e+00
	3.006300972275940e-01
	1.949567110819682e-01
	4.999261952547270e+00
	4.436590650099040e-02
	1.288048683013409e+00
	5.864212504038236e-01
	2.298960206723032e+00
	3.091986986543028e+00
	5.963464321999343e-01
	1.287174755323375e+00
	1.980045935097036e+00
	4.973645023063881e+00
	1.442679656929929e+00
	1.452705655555675e+00
	7.973805732078620e-01
	4.809807448130176e+00
	5.000000000000000e+00
	4.372214834812810e+00
	5.000000000000000e+00
	1.260434283599376e+00
	6.594124404747490e-01
	3.502252523734220e+00
	8.081422280966544e-02
	5.000000000000000e+00
	6.415162804241177e-01
	4.999997571565372e+00
	4.874712560252916e+00
	6.477557392765898e-01
	1.430988464862742e+00
	2.127193846644094e+00
	4.748032456022713e+00
	4.167102055651289e+00
	3.724906900084091e+00
	2.917067888653246e+00
	6.264221327865823e-01
	5.000000000000000e+00
	7.083642009981271e-01
	0.000000000000000e+00
	8.356237673778945e-02
	1.156108292373294e-02
	2.500680108608009e-05
	8.001441402090358e-02
	5.000000000000000e+00
	6.415162030678603e-01
	9.073375396946616e-01
	1.720387436911609e+00
	6.477556432853429e-01
	1.430988381560300e+00
	2.127193764431931e+00
	4.998442194362040e+00
	8.555201210653186e-02
	4.058991089255622e-03
	1.467413774292271e-10
	2.057232934280040e+00
	5.000000000000000e+00
	2.142878794954795e+00
	1.448725097245577e+00
	3.006300972274571e-01
	1.949567110819919e-01
	4.999262004913968e+00
	4.436590650099808e-02
	1.288048683013421e+00
	5.864212504038346e-01
	2.298960206723197e+00
	3.091986986543212e+00
	5.963464321999462e-01
	1.287174755323387e+00
	1.980045935097047e+00
	4.973645023063888e+00
	1.442679656930004e+00
	1.452705655555764e+00
	7.973805732079076e-01
	5.000000000000000e+00
	1.456230960765741e-01
	1.452713013052050e+00
	1.447290998786288e+00
	4.973334964520205e+00
	4.973645023055381e+00
	1.287929741342164e+00
	5.953105218029133e-01
	4.849362945417244e+00
	3.091959501233505e+00
	1.448725097242640e+00
	2.057232934275351e+00
	4.999262004875496e+00
	4.556370983770016e-01
	8.356237673760628e-02
	4.058991089265975e-03
	4.458953260923722e-15
	4.998423867247219e+00
	4.998442194351709e+00
	1.436041443361136e+00
	6.467319900191593e-01
	4.768928492444273e+00
	1.720337832130290e+00
	1.295764746876609e-13
	6.264221327851770e-01
	2.500680109889256e-05
	8.356237673760628e-02
	5.812202664322663e-02
	3.726011637565664e+00
	4.795996119254976e+00
	4.747150160822952e+00
	4.745950427175683e+00
	1.436041526519017e+00
	6.467320757167466e-01
	4.999999999994873e+00
	4.874662445276751e+00
	4.999999999989730e+00
	4.809622053947006e+00
	3.500510544032711e+00
	2.462747737593088e+00
	1.456230960768009e-01
	1.452713013051961e+00
	1.447290998786201e+00
	4.973334964520198e+00
	4.973645023055374e+00
	1.287929741342153e+00
	5.953105218029014e-01
	4.849362945417345e+00
	3.091959501233321e+00
	1.448725097242550e+00
	2.057232934275283e+00
	4.999261952508799e+00
	4.556370983770481e-01
	-1.407265130900881e+00
	-4.334862619369412e-03
	2.397800639928416e-01
	-4.334862743378298e-03
	0.000000000000000e+00
	-1.585790180073381e-01
	-2.415904280776648e-01
	-5.103839378850014e-03
	-1.585790180072388e-01
5		1.600000000000000e-01
	2.057232934280020e+00
	5.000000000000000e+00
	2.142878794954769e+00
	1.448725097245549e+00
	3.006300972275068e-01
	1.949567110820135e-01
	4.999262016029696e+00
	4.436590650099981e-02
	1.288048683013433e+00
	5.864212504038397e-01
	2.298960206723146e+00
	3.091986986543160e+00
	5.963464321999496e-01
	1.287174755323399e+00
	1.980045935097060e+00
	4.973645023063910e+00
	1.442679656929993e+00
	1.452705655555737e+00
	7.973805732078936e-01
	4.809807448128226e+00
	5.000000000000000e+00
	4.372214834812315e+00
	5.000000000000000e+00
	1.260434283599358e+00
	6.594124404746809e-01
	3.502252523732347e+00
	8.081422280966338e-02
	5.000000000000000e+00
	6.415162804241160e-01
	4.999997589304714e+00
	4.874712560256752e+00
	6.477557392765876e-01
	1.430988464862742e+00
	2.127193846644096e+00
	4.748032456023155e+00
	4.167102055649353e+00
	3.724906900083584e+00
	2.917067888652748e+00
	6.264221327865839e-01
	5.000000000000000e+00
	7.083642009981269e-01
	0.000000000000000e+00
	8.356234827822638e-02
	1.156108292373711e-02
	2.500680108595130e-05
	8.001441402090338e-02
	5.000000000000000e+00
	6.415162030678599e-01
	9.073375396947406e-01
	1.720387436911706e+00
	6.477556432853421e-01
	1.430988381560298e+00
	2.127193764431927e+00
	4.998442194362127e+00
	8.555201210653562e-02
	4.058991089255726e-03
	1.467448009762213e-10
	2.057232934280062e+00
	5.000000000000000e+00
	2.142878794954797e+00
	1.448725097245576e+00
	3.006300972273994e-01
	1.949567110820010e-01
	4.999261995987127e+00
	4.436590650100074e-02
	1.288048683013447e+00
	5.864212504038424e-01
	2.298960206723209e+00
	3.091986986543233e+00
	5.963464321999509e-01
	1.287174755323413e+00
	1.980045935097074e+00
	4.973645023063900e+00
	1.442679656930027e+00
	1.452705655555765e+00
	7.973805732079113e-01
	5.000000000000000e+00
	1.456230960764948e-01
	1.452713013052051e+00
	1.447290998786288e+00
	4.973334964520218e+00
	4.973645023055393e+00
	1.287929741342191e+00
	5.953105218029181e-01
	4.849362945417227e+00
	3.091959501233527e+00
	1.448725097242639e+00
	2.057232934275372e+00
	4.999261995948657e+00
	4.556370983769660e-01
	8.356234827804319e-02
	4.058991089266079e-03
	4.458953260955247e-15
	4.998423867247306e+00
	4.998442194351796e+00
	1.436041443361134e+00
	6.467319900191586e-01
	4.768928492444155e+00
	1.720337832130387e+00
	1.295764746828238e-13
	6.264221327851787e-01
	2.500680109876377e-05
	8.356234827804319e-02
	5.812202664323030e-02
	3.726011637565157e+00
	4.795996119255030e+00
	4.747150160823394e+00
	4.745950427176129e+00
	1.436041526519017e+00
	6.467320757167445e-01
	4.999999999994873e+00
	4.874662445280586e+00
	4.999999999989729e+00
	4.809622053945055e+00
	3.500510544030843e+00
	2.462747737593047e+00
	1.456230960766523e-01
	1.452713013052023e+00
	1.447290998786262e+00
	4.973334964520228e+00
	4.973645023055403e+00
	1.287929741342177e+00
	5.953105218029168e-01
	4.849362945417274e+00
	3.091959501233454e+00
	1.448725097242612e+00
	2.057232934275330e+00
	4.999262015991225e+00
	4.556370983770224e-01
	-1.407265130900791e+00
	-4.334862619369717e-03
	2.397800639929587e-01
	-4.334862743378048e-03
	0.000000000000000e+00
	-1.585790180073549e-01
	-2.415904280777811e-01
	-5.103839378845986e-03
	-1.585790180073053e-01
6		3.200000000000000e-01
	2.057232934279917e+00
	5.000000000000000e+00
	2.142878794954652e+00
	1.448725097245430e+00
	3.006300972277006e-01
	1.949567110819606e-01
	4.999262050666130e+00
	4.436590650099564e-02
	1.288048683013424e+00
	5.864212504038323e-01
	2.298960206722926e+00
	3.091986986542905e+00
	5.963464321999423e-01
	1.287174755323389e+00
	1.980045935097051e+00
	4.973645023063836e+00
	1.442679656929875e+00
	1.452705655555619e+00
	7.973805732078326e-01
	4.809807448127849e+00
	5.000000000000000e+00
	4.372214834812731e+00
	5.000000000000000e+00
	1.260434283599371e+00
	6.594124404746818e-01
	3.502252523731963e+00
	8.081422280966200e-02
	5.000000000000000e+00
	6.415162804241146e-01
	4.999997573605565e+00
	4.874712560253037e+00
	6.477557392765865e-01
	1.430988464862733e+00
	2.127193846644085e+00
	4.748032456023150e+00
	4.167102055648982e+00
	3.724906900084014e+00
	2.917067888653177e+00
	6.264221327865851e-01
	5.000000000000000e+00
	7.083642009981282e-01
	0.000000000000000e+00
	8.356229007163385e-02
	1.156108292373256e-02
	2.500680108610904e-05
	8.001441402090528e-02
	5.000000000000000e+00
	6.415162030678623e-01
	9.073375396946475e-01
	1.720387436911591e+00
	6.477556432853447e-01
	1.430988381560302e+00
	2.127193764431933e+00
	4.998442194362038e+00
	8.555201210653496e-02
	4.058991089255578e-03
	1.467410568491123e-10
	2.057232934280055e+00
	5.000000000000000e+00
	2.142878794954789e+00
	1.448725097245567e+00
	3.006300972274376e-01
	1.949567110819967e-01
	4.999262014821036e+00
	4.436590650100206e-02
	1.288048683013445e+00
	5.864212504038437e-01
	2.298960206723186e+00
	3.091986986543201e+00
	5.963464321999525e-01
	1.287174755323411e+00
	1.980045935097070e+00
	4.973645023063844e+00
	1.442679656930018e+00
	1.452705655555754e+00
	7.973805732079046e-01
	5.000000000000000e+00
	1.456230960765518e-01
	1.452713013052040e+00
	1.447290998786279e+00
	4.973334964520161e+00
	4.973645023055337e+00
	1.287929741342189e+00
	5.953105218029197e-01
	4.849362945417248e+00
	3.091959501233495e+00
	1.448725097242630e+00
	2.057232934275365e+00
	4.999262014782564e+00
	4.556370983769854e-01
	8.356229007145066e-02
	4.058991089265932e-03
	4.458953260832279e-15
	4.998423867247217e+00
	4.998442194351706e+00
	1.436041443361138e+00
	6.467319900191613e-01
	4.768928492444297e+00
	1.720337832130272e+00
	1.295764746879372e-13
	6.264221327851798e-01
	2.500680109892150e-05
	8.356229007145066e-02
	5.812202664322715e-02
	3.726011637565586e+00
	4.795996119254985e+00
	4.747150160823390e+00
	4.745950427176124e+00
	1.436041526519008e+00
	6.467320757167434e-01
	4.999999999994873e+00
	4.874662445276871e+00
	4.999999999989729e+00
	4.809622053944676e+00
	3.500510544030458e+00
	2.462747737593077e+00
	1.456230960769694e-01
	1.452713013051905e+00
	1.447290998786146e+00
	4.973334964520152e+00
	4.973645023055328e+00
	1.287929741342167e+00
	5.953105218029094e-01
	4.849362945417408e+00
	3.091959501233198e+00
	1.448725097242493e+00
	2.057232934275228e+00
	4.999262050627658e+00
	4.556370983770926e-01
	-1.407265130900882e+00
	-4.334862619369440e-03
	2.397800639928198e-01
	-4.334862743378243e-03
	0.000000000000000e+00
	-1.585790180073336e-01
	-2.415904280776426e-01
	-5.103839378848739e-03
	-1.585790180071732e-01
7		6.400000000000000e-01
	2.057232934280032e+00
	5.000000000000000e+00
	2.142878794954765e+00
	1.448725097245543e+00
	3.006300972275160e-01
	1.949567110820145e-01
	4.999261985048244e+00
	4.436590650099922e-02
	1.288048683013427e+00
	5.864212504038375e-01
	2.298960206723133e+00
	3.091986986543142e+00
	5.963464321999480e-01
	1.287174755323393e+00
	1.980045935097051e+00
	4.973645023063818e+00
	1.442679656930005e+00
	1.452705655555732e+00
	7.973805732078908e-01
	4.809807448128104e+00
	5.000000000000000e+00
	4.372214834812608e+00
	5.000000000000000e+00
	1.260434283599360e+00
	6.594124404746803e-01
	3.502252523732224e+00
	8.081422280966161e-02
	5.000000000000000e+00
	6.415162804241145e-01
	4.999997593884031e+00
	4.874712560252777e+00
	6.477557392765861e-01
	1.430988464862732e+00
	2.127193846644083e+00
	4.748032456023166e+00
	4.167102055649232e+00
	3.724906900083879e+00
	2.917067888653033e+00
	6.264221327865861e-01
	5.000000000000000e+00
	7.083642009981275e-01
	0.000000000000000e+00
	8.356223765059237e-02
	1.156108292374143e-02
	2.500680108596571e-05
	8.001441402090519e-02
	5.000000000000000e+00
	6.415162030678621e-01
	9.073375396946165e-01
	1.720387436911549e+00
	6.477556432853443e-01
	1.430988381560307e+00
	2.127193764431938e+00
	4.998442194362044e+00
	8.555201210653737e-02
	4.058991089255783e-03
	1.467491329342605e-10
	2.057232934279923e+00
	5.000000000000000e+00
	2.142878794954664e+00
	1.448725097245441e+00
	3.006300972276614e-01
	1.949567110819825e-01
	4.999261965852237e+00
	4.436590650099669e-02
	1.288048683013410e+00
	5.864212504038321e-01
	2.298960206722952e+00
	3.091986986542939e+00
	5.963464321999442e-01
	1.287174755323376e+00
	1.980045935097034e+00
	4.973645023063807e+00
	1.442679656929889e+00
	1.452705655555630e+00
	7.973805732078389e-01
	5.000000000000000e+00
	1.456230960769136e-01
	1.452713013051915e+00
	1.447290998786157e+00
	4.973334964520124e+00
	4.973645023055299e+00
	1.287929741342154e+00
	5.953105218029113e-01
	4.849362945417389e+00
	3.091959501233233e+00
	1.448725097242504e+00
	2.057232934275234e+00
	4.999261965813766e+00
	4.556370983770698e-01
	8.356223765040920e-02
	4.058991089266137e-03
	4.458953260996931e-15
	4.998423867247222e+00
	4.998442194351712e+00
	1.436041443361143e+00
	6.467319900191608e-01
	4.768928492444338e+00
	1.720337832130231e+00
	1.295764746826138e-13
	6.264221327851808e-01
	2.500680109877818e-05
	8.356223765040920e-02
	5.812202664322840e-02
	3.726011637565453e+00
	4.795996119254998e+00
	4.747150160823406e+00
	4.745950427176140e+00
	1.436041526519007e+00
	6.467320757167431e-01
	4.999999999994873e+00
	4.874662445276611e+00
	4.999999999989730e+00
	4.809622053944932e+00
	3.500510544030718e+00
	2.462747737593053e+00