Title: kicad schematic
Date: Sat Nov 08 19:36:32  2025
Plotname: Transient Analysis
Flags: real
No. Variables: 21
No. Points: 281     
Variables:
	0	time	time
	1	v(in2a)	voltage
	2	v(in3a)	voltage
	3	v(net-_x1-pad14_)	voltage
	4	v(in4a)	voltage
	5	v(in5a)	voltage
	6	v(ina)	voltage
	7	v(outa)	voltage
	8	v(out4a)	voltage
	9	v(out3a)	voltage
	10	v(out5a)	voltage
	11	v(in6a)	voltage
	12	v(out6a)	voltage
	13	v(out2a)	voltage
	14	i(v4)	current
	15	i(v3)	current
	16	i(v5)	current
	17	i(v6)	current
	18	i(v7)	current
	19	i(v2)	current
	20	i(v1)	current
Values:
0		0.000000000000000e+00
	0.000000000000000e+00
	0.000000000000000e+00
	5.000000000000000e+00
	0.000000000000000e+00
	0.000000000000000e+00
	0.000000000000000e+00
	5.000000617136364e+00
	5.000000617135681e+00
	5.000000617135828e+00
	5.000000617136864e+00
	0.000000000000000e+00
	5.000000617136684e+00
	5.000000617135681e+00
	0.000000000000000e+00
	0.000000000000000e+00
	0.000000000000000e+00
	0.000000000000000e+00
	-8.661679202176650e-11
	0.000000000000000e+00
	0.000000000000000e+00
1		1.000000000000001e-10
	5.000000000000000e-02
	5.000000000000000e-02
	5.000000000000000e+00
	5.000000000000000e-02
	5.000000000000000e-02
	5.000000000000000e-02
	5.090575328700709e+00
	5.090575328699955e+00
	5.090575328700134e+00
	5.090575328701227e+00
	5.000000000000000e-02
	5.090575328701091e+00
	5.090575328699961e+00
	-1.255737882349025e-02
	-1.255737882351343e-02
	-1.255737882349450e-02
	-1.255737882355090e-02
	3.327288082523541e-03
	-1.255737882354069e-02
	-1.255737882354957e-02
2		2.000000000000002e-10
	1.000000000000000e-01
	1.000000000000000e-01
	5.000000000000000e+00
	1.000000000000000e-01
	1.000000000000000e-01
	1.000000000000000e-01
	5.189921772587766e+00
	5.189921772586984e+00
	5.189921772587179e+00
	5.189921772588324e+00
	1.000000000000000e-01
	5.189921772588152e+00
	5.189921772586987e+00
	-7.573726893310257e-03
	-7.573726893323084e-03
	-7.573726893299160e-03
	-7.573726893352006e-03
	-2.491130321414364e-02
	-7.573726893344013e-03
	-7.573726893352450e-03
3		4.000000000000004e-10
	2.000000000000000e-01
	2.000000000000000e-01
	5.000000000000000e+00
	2.000000000000000e-01
	2.000000000000000e-01
	2.000000000000000e-01
	5.417949765748252e+00
	5.417949765747338e+00
	5.417949765747576e+00
	5.417949765749015e+00
	2.000000000000000e-01
	5.417949765748778e+00
	5.417949765747367e+00
	9.409704335979523e-03
	9.409704335931775e-03
	9.409704335996416e-03
	9.409704335879621e-03
	-1.224444270884539e-01
	9.409704335895608e-03
	9.409704335887170e-03
4		6.232210208272545e-10
	3.116105104136270e-01
	3.116105104136270e-01
	5.000000000000000e+00
	3.116105104136270e-01
	3.116105104136270e-01
	3.116105104136270e-01
	5.687118242169602e+00
	5.687118242169265e+00
	5.687118242169384e+00
	5.687118242169825e+00
	3.116105104136270e-01
	5.687118242169768e+00
	5.687118242169285e+00
	3.944553418414873e-03
	3.944553418570872e-03
	3.944553418347763e-03
	3.944553418794960e-03
	-9.164773186944308e-02
	3.944553418744334e-03
	3.944553418785191e-03
5		8.927089342430442e-10
	4.463544671215217e-01
	4.463544671215217e-01
	5.000000000000000e+00
	4.463544671215217e-01
	4.463544671215217e-01
	4.463544671215217e-01
	5.773370332272725e+00
	5.773370332272704e+00
	5.773370332272705e+00
	5.773370332272743e+00
	4.463544671215217e-01
	5.773370332272732e+00
	5.773370332272700e+00
	-7.556070152868478e-02
	-7.556070152876831e-02
	-7.556070152864258e-02
	-7.556070152885708e-02
	3.720492964848336e-01
	-7.556070152885130e-02
	-7.556070152885397e-02
6		1.158995598762451e-09
	5.794977993812250e-01
	5.794977993812250e-01
	5.000000000000000e+00
	5.794977993812250e-01
	5.794977993812250e-01
	5.794977993812250e-01
	5.820987134786190e+00
	5.820987134786177e+00
	5.820987134786182e+00
	5.820987134786197e+00
	5.794977993812250e-01
	5.820987134786195e+00
	5.820987134786179e+00
	-3.980612972897230e-02
	-3.980612972887189e-02
	-3.980612972902531e-02
	-3.980612972874642e-02
	1.374691074573722e-01
	-3.980612972876196e-02
	-3.980612972875130e-02
7		1.609735020863784e-09
	8.048675104318911e-01
	8.048675104318911e-01
	5.000000000000000e+00
	8.048675104318911e-01
	8.048675104318911e-01
	8.048675104318911e-01
	5.854531929815024e+00
	5.854531929815028e+00
	5.854531929815026e+00
	5.854531929815022e+00
	8.048675104318911e-01
	5.854531929815026e+00
	5.854531929815027e+00
	-9.958420488025883e-02
	-9.958420488035466e-02
	-9.958420488020869e-02
	-9.958420488046782e-02
	4.844160998230640e-01
	-9.958420488045694e-02
	-9.958420488046582e-02
8		2.328974029255551e-09
	1.164487014627775e+00
	1.164487014627775e+00
	5.000000000000000e+00
	1.164487014627775e+00
	1.164487014627775e+00
	1.164487014627775e+00
	5.856236402362319e+00
	5.856236402362316e+00
	5.856236402362318e+00
	5.856236402362324e+00
	1.164487014627775e+00
	5.856236402362320e+00
	5.856236402362316e+00
	-5.018913725518719e-02
	-5.018913725509135e-02
	-5.018913725523788e-02
	-5.018913725497798e-02
	1.846839004851581e-01
	-5.018913725498853e-02
	-5.018913725498009e-02
9		3.179802839064444e-09
	1.589901419532221e+00
	1.589901419532221e+00
	5.000000000000000e+00
	1.589901419532221e+00
	1.589901419532221e+00
	1.589901419532221e+00
	5.855756488980845e+00
	5.855756488980845e+00
	5.855756488980845e+00
	5.855756488980842e+00
	1.589901419532221e+00
	5.855756488980842e+00
	5.855756488980845e+00
	-1.002544534831595e-01
	-1.002544534832550e-01
	-1.002544534831079e-01
	-1.002544534833679e-01
	4.872896339138411e-01
	-1.002544534833579e-01
	-1.002544534833660e-01
10		4.881460458682230e-09
	2.440730229341113e+00
	2.440730229341113e+00
	5.000000000000000e+00
	2.440730229341113e+00
	2.440730229341113e+00
	2.440730229341113e+00
	5.852951547401011e+00
	5.852951547401010e+00
	5.852951547401012e+00
	5.852951547401015e+00
	2.440730229341113e+00
	5.852951547401013e+00
	5.852951547401011e+00
	-4.979302584732893e-02
	-4.979302584723278e-02
	-4.979302584738021e-02
	-4.979302584712042e-02
	1.813414725853271e-01
	-4.979302584713011e-02
	-4.979302584712225e-02
11		8.284775697917802e-09
	4.142387848958897e+00
	4.142387848958897e+00
	5.000000000000000e+00
	4.142387848958897e+00
	4.142387848958897e+00
	4.142387848958897e+00
	5.848008644794326e+00
	5.848008644794332e+00
	5.848008644794328e+00
	5.848008644794326e+00
	4.142387848958897e+00
	5.848008644794327e+00
	5.848008644794330e+00
	-9.871156133420508e-02
	-9.871156133430137e-02
	-9.871156133415374e-02
	-9.871156133441375e-02
	4.739191428468592e-01
	-9.871156133440408e-02
	-9.871156133441186e-02
12		1.000000000000001e-08
	5.000000000000000e+00
	5.000000000000000e+00
	5.000000000000000e+00
	5.000000000000000e+00
	5.000000000000000e+00
	5.000000000000000e+00
	5.837622284990376e+00
	5.837622284990372e+00
	5.837622284990375e+00
	5.837622284990379e+00
	5.000000000000000e+00
	5.837622284990379e+00
	5.837622284990373e+00
	-4.028616709430886e-02
	-4.028616709421274e-02
	-4.028616709436061e-02
	-4.028616709410077e-02
	1.193929895701729e-01
	-4.028616709410995e-02
	-4.028616709410260e-02
13		1.005275662195017e-08
	5.000000000000000e+00
	5.000000000000000e+00
	5.000000000000000e+00
	5.000000000000000e+00
	5.000000000000000e+00
	5.000000000000000e+00
	5.808670269171264e+00
	5.808670269171243e+00
	5.808670269171267e+00
	5.808670269171263e+00
	5.000000000000000e+00
	5.808670269171254e+00
	5.808670269171263e+00
	-3.760574926551109e-02
	-3.760574926551532e-02
	-3.760574926551463e-02
	-3.760574926551019e-02
	1.441774035192980e-01
	-3.760574926551358e-02
	-3.760574926551463e-02
14		1.015826986585049e-08
	5.000000000000000e+00
	5.000000000000000e+00
	5.000000000000000e+00
	5.000000000000000e+00
	5.000000000000000e+00
	5.000000000000000e+00
	5.761342969773098e+00
	5.761342969773076e+00
	5.761342969773098e+00
	5.761342969773104e+00
	5.000000000000000e+00
	5.761342969773064e+00
	5.761342969773100e+00
	-2.228922003212377e-02
	-2.228922003211924e-02
	-2.228922003212030e-02
	-2.228922003211942e-02
	7.738243806646272e-02
	-2.228922003212608e-02
	-2.228922003212208e-02
15		1.036929635365114e-08
	5.000000000000000e+00
	5.000000000000000e+00
	5.000000000000000e+00
	5.000000000000000e+00
	5.000000000000000e+00
	5.000000000000000e+00
	5.707322780699526e+00
	5.707322780699556e+00
	5.707322780699517e+00
	5.707322780699525e+00
	5.000000000000000e+00
	5.707322780699578e+00
	5.707322780699521e+00
	-1.210852175235788e-02
	-1.210852175236273e-02
	-1.210852175236665e-02
	-1.210852175236132e-02
	4.556826161886651e-02
	-1.210852175236250e-02
	-1.210852175236399e-02
16		1.079134932925244e-08
	5.000000000000000e+00
	5.000000000000000e+00
	5.000000000000000e+00
	5.000000000000000e+00
	5.000000000000000e+00
	5.000000000000000e+00
	5.653329323662081e+00
	5.653329323662065e+00
	5.653329323662079e+00
	5.653329323662083e+00
	5.000000000000000e+00
	5.653329323662052e+00
	5.653329323662081e+00
	-5.463124728592763e-03
	-5.463124728586888e-03
	-5.463124728585900e-03
	-5.463124728590341e-03
	2.322312917935507e-02
	-5.463124728586938e-03
	-5.463124728585456e-03
17		1.140145905562226e-08
	5.000000000000000e+00
	5.000000000000000e+00
	5.000000000000000e+00
	5.000000000000000e+00
	5.000000000000000e+00
	5.000000000000000e+00
	5.615210823038373e+00
	5.615210823038411e+00
	5.615210823038367e+00
	5.615210823038367e+00
	5.000000000000000e+00
	5.615210823038423e+00
	5.615210823038371e+00
	-3.271424590049419e-03
	-3.271424590054800e-03
	-3.271424590056027e-03
	-3.271424590050032e-03
	1.229522017059943e-02
	-3.271424590054233e-03
	-3.271424590055361e-03
18		1.262167850836191e-08
	5.000000000000000e+00
	5.000000000000000e+00
	5.000000000000000e+00
	5.000000000000000e+00
	5.000000000000000e+00
	5.000000000000000e+00
	5.562303348956780e+00
	5.562303348956771e+00
	5.562303348956783e+00
	5.562303348956777e+00
	5.000000000000000e+00
	5.562303348956746e+00
	5.562303348956798e+00
	-2.790867788416648e-03
	-2.790867788411219e-03
	-2.790867788410201e-03
	-2.790867788415197e-03
	8.711854394453118e-03
	-2.790867788410918e-03
	-2.790867788409535e-03
19		1.503952018171932e-08
	5.000000000000000e+00
	5.000000000000000e+00
	5.000000000000000e+00
	5.000000000000000e+00
	5.000000000000000e+00
	5.000000000000000e+00
	5.470039319247630e+00
	5.470039319247674e+00
	5.470039319247618e+00
	5.470039319247602e+00
	5.000000000000000e+00
	5.470039319247695e+00
	5.470039319247631e+00
	-2.492083169800563e-03
	-2.492083169806344e-03
	-2.492083169808201e-03
	-2.492083169802761e-03
	7.608098857123349e-03
	-2.492083169806889e-03
	-2.492083169808701e-03
20		1.744600309123508e-08
	5.000000000000000e+00
	5.000000000000000e+00
	5.000000000000000e+00
	5.000000000000000e+00
	5.000000000000000e+00
	5.000000000000000e+00
	5.379547582495769e+00
	5.379547582495740e+00
	5.379547582495762e+00
	5.379547582495753e+00
	5.000000000000000e+00
	5.379547582495747e+00
	5.379547582495782e+00
	-2.560674819060600e-03
	-2.560674819054779e-03
	-2.560674819052644e-03
	-2.560674819059194e-03
	7.499058717103307e-03
	-2.560674819054511e-03
	-2.560674819052700e-03
21		2.088776392876601e-08
	5.000000000000000e+00
	5.000000000000000e+00
	5.000000000000000e+00
	5.000000000000000e+00
	5.000000000000000e+00
	5.000000000000000e+00
	3.108423176278773e+00
	3.108423176278690e+00
	3.108423176278631e+00
	3.108423176278807e+00
	5.000000000000000e+00
	3.108423176278893e+00
	3.108423176279147e+00
	-2.285805108563792e-03
	-2.285805108569050e-03
	-2.285805108570265e-03
	-2.285805108564618e-03
	8.245726468602801e-03
	-2.285805108568819e-03
	-2.285805108570947e-03
22		2.291403752623786e-08
	5.000000000000000e+00
	5.000000000000000e+00
	5.000000000000000e+00
	5.000000000000000e+00
	5.000000000000000e+00
	5.000000000000000e+00
	2.646093610153907e+00
	2.646093610153932e+00
	2.646093610153885e+00
	2.646093610153888e+00
	5.000000000000000e+00
	2.646093610153937e+00
	2.646093610153976e+00
	4.105728982673335e-04
	4.105728982722878e-04
	4.105728982736564e-04
	4.105728982680832e-04
	-8.240601149210039e-03
	4.105728982723657e-04
	4.105728982745914e-04
23		2.430463840562493e-08
	5.000000000000000e+00
	5.000000000000000e+00
	5.000000000000000e+00
	5.000000000000000e+00
	5.000000000000000e+00
	5.000000000000000e+00
	2.556884656885918e+00
	2.556884656885887e+00
	2.556884656885905e+00
	2.556884656885893e+00
	5.000000000000000e+00
	2.556884656885899e+00
	2.556884656885998e+00
	-2.687435305566435e-03
	-2.687435305571591e-03
	-2.687435305572894e-03
	-2.687435305567045e-03
	8.233153609746479e-03
	-2.687435305571297e-03
	-2.687435305573363e-03
24		2.564459072325440e-08
	5.000000000000000e+00
	5.000000000000000e+00
	5.000000000000000e+00
	5.000000000000000e+00
	5.000000000000000e+00
	5.000000000000000e+00
	2.435024093389614e+00
	2.435024093389610e+00
	2.435024093389566e+00
	2.435024093389565e+00
	5.000000000000000e+00
	2.435024093389626e+00
	2.435024093389642e+00
	1.153221688406134e-03
	1.153221688411317e-03
	1.153221688412301e-03
	1.153221688406407e-03
	-8.225431159149300e-03
	1.153221688410914e-03
	1.153221688413328e-03
25		2.832449535851335e-08
	5.000000000000000e+00
	5.000000000000000e+00
	5.000000000000000e+00
	5.000000000000000e+00
	5.000000000000000e+00
	5.000000000000000e+00
	2.310965894030443e+00
	2.310965894030375e+00
	2.310965894030400e+00
	2.310965894030383e+00
	5.000000000000000e+00
	2.310965894030396e+00
	2.310965894030463e+00
	-3.117882287180386e-03
	-3.117882287184914e-03
	-3.117882287186455e-03
	-3.117882287180755e-03
	8.221579766492453e-03
	-3.117882287184708e-03
	-3.117882287187564e-03
26		3.368430462903125e-08
	5.000000000000000e+00
	5.000000000000000e+00
	5.000000000000000e+00
	5.000000000000000e+00
	5.000000000000000e+00
	5.000000000000000e+00
	2.067037422263864e+00
	2.067037422263870e+00
	2.067037422263834e+00
	2.067037422263804e+00
	5.000000000000000e+00
	2.067037422263883e+00
	2.067037422263868e+00
	1.521716814367786e-03
	1.521716814372080e-03
	1.521716814373626e-03
	1.521716814368063e-03
	-8.219654791148763e-03
	1.521716814372145e-03
	1.521716814374790e-03
27		4.440392317006705e-08
	5.000000000000000e+00
	5.000000000000000e+00
	5.000000000000000e+00
	5.000000000000000e+00
	5.000000000000000e+00
	5.000000000000000e+00
	1.761248527341566e+00
	1.761248527341519e+00
	1.761248527341534e+00
	1.761248527341532e+00
	5.000000000000000e+00
	1.761248527341507e+00
	1.761248527341588e+00
	-3.053919217087220e-03
	-3.053919217091326e-03
	-3.053919217092796e-03
	-3.053919217087332e-03
	8.218692813048295e-03
	-3.053919217091510e-03
	-3.053919217094020e-03
28		6.584316025213865e-08
	5.000000000000000e+00
	5.000000000000000e+00
	5.000000000000000e+00
	5.000000000000000e+00
	5.000000000000000e+00
	5.000000000000000e+00
	1.310183882659399e+00
	1.310183882659431e+00
	1.310183882659378e+00
	1.310183882659384e+00
	5.000000000000000e+00
	1.310183882659393e+00
	1.310183882659420e+00
	1.845513469692940e-03
	1.845513469697058e-03
	1.845513469698576e-03
	1.845513469693118e-03
	-8.218211978677085e-03
	1.845513469697262e-03
	1.845513469699765e-03
29		1.087216344162819e-07
	5.000000000000000e+00
	5.000000000000000e+00
	5.000000000000000e+00
	5.000000000000000e+00
	5.000000000000000e+00
	5.000000000000000e+00
	7.948821770957606e-01
	7.948821770957476e-01
	7.948821770957811e-01
	7.948821770957543e-01
	5.000000000000000e+00
	7.948821770957064e-01
	7.948821770957808e-01
	-2.718192577096610e-03
	-2.718192577100752e-03
	-2.718192577102263e-03
	-2.718192577096797e-03
	8.217971475809906e-03
	-2.718192577100905e-03
	-2.718192577103473e-03
30		1.944785827445683e-07
	5.000000000000000e+00
	5.000000000000000e+00
	5.000000000000000e+00
	5.000000000000000e+00
	5.000000000000000e+00
	5.000000000000000e+00
	2.826929739491656e-01
	2.826929739492093e-01
	2.826929739491811e-01
	2.826929739491621e-01
	5.000000000000000e+00
	2.826929739492097e-01
	2.826929739491822e-01
	2.266119034562730e-03
	2.266119034566852e-03
	2.266119034568376e-03
	2.266119034562899e-03
	-8.217851360295963e-03
	2.266119034566999e-03
	2.266119034569569e-03
31		3.451952198244355e-07
	5.000000000000000e+00
	5.000000000000000e+00
	5.000000000000000e+00
	5.000000000000000e+00
	5.000000000000000e+00
	5.000000000000000e+00
	3.996005449613203e-02
	3.996005449613002e-02
	3.996005449615194e-02
	3.996005449614731e-02
	5.000000000000000e+00
	3.996005449610644e-02
	3.996005449616380e-02
	-2.407331291040603e-03
	-2.407331291044726e-03
	-2.407331291046233e-03
	-2.407331291040765e-03
	8.217782870634896e-03
	-2.407331291044870e-03
	-2.407331291047437e-03
32		5.493963076413977e-07
	5.000000000000000e+00
	5.000000000000000e+00
	5.000000000000000e+00
	5.000000000000000e+00
	5.000000000000000e+00
	5.000000000000000e+00
	-8.393540579379584e-03
	-8.393540579352026e-03
	-8.393540579381648e-03
	-8.393540579381997e-03
	5.000000000000000e+00
	-8.393540579344303e-03
	-8.393540579383211e-03
	2.393349519398839e-03
	2.393349519402962e-03
	2.393349519404464e-03
	2.393349519398991e-03
	-8.217732488138386e-03
	2.393349519403099e-03
	2.393349519405662e-03
33		8.524463265325709e-07
	5.000000000000000e+00
	5.000000000000000e+00
	5.000000000000000e+00
	5.000000000000000e+00
	5.000000000000000e+00
	5.000000000000000e+00
	7.610537080748500e-03
	7.610537080722177e-03
	7.610537080751569e-03
	7.610537080751348e-03
	5.000000000000000e+00
	7.610537080713005e-03
	7.610537080754720e-03
	-2.392897374609057e-03
	-2.392897374613178e-03
	-2.392897374614681e-03
	-2.392897374609206e-03
	8.217698376840369e-03
	-2.392897374613315e-03
	-2.392897374615881e-03
34		1.378547043854200e-06
	5.000000000000000e+00
	5.000000000000000e+00
	5.000000000000000e+00
	5.000000000000000e+00
	5.000000000000000e+00
	5.000000000000000e+00
	-7.406316112254385e-03
	-7.406316112230395e-03
	-7.406316112261490e-03
	-7.406316112256604e-03
	5.000000000000000e+00
	-7.406316112224082e-03
	-7.406316112261617e-03
	2.392798964633652e-03
	2.392798964637772e-03
	2.392798964639275e-03
	2.392798964633800e-03
	-8.217678881553328e-03
	2.392798964637910e-03
	2.392798964640475e-03
35		2.430748478497458e-06
	5.000000000000000e+00
	5.000000000000000e+00
	5.000000000000000e+00
	5.000000000000000e+00
	5.000000000000000e+00
	5.000000000000000e+00
	7.351426247201339e-03
	7.351426247175293e-03
	7.351426247204954e-03
	7.351426247205335e-03
	5.000000000000000e+00
	7.351426247168958e-03
	7.351426247209112e-03
	-2.392770424038945e-03
	-2.392770424043065e-03
	-2.392770424044568e-03
	-2.392770424039093e-03
	8.217668987598062e-03
	-2.392770424043203e-03
	-2.392770424045768e-03
36		4.535151347783973e-06
	5.000000000000000e+00
	5.000000000000000e+00
	5.000000000000000e+00
	5.000000000000000e+00
	5.000000000000000e+00
	5.000000000000000e+00
	-7.328713349745162e-03
	-7.328713349717955e-03
	-7.328713349748627e-03
	-7.328713349745162e-03
	5.000000000000000e+00
	-7.328713349713105e-03
	-7.328713349752643e-03
	2.392759339230782e-03
	2.392759339234902e-03
	2.392759339236405e-03
	2.392759339230929e-03
	-8.217664187000451e-03
	2.392759339235040e-03
	2.392759339237605e-03
37		8.743957086357003e-06
	5.000000000000000e+00
	5.000000000000000e+00
	5.000000000000000e+00
	5.000000000000000e+00
	5.000000000000000e+00
	5.000000000000000e+00
	7.318929232591366e-03
	7.318929232563695e-03
	7.318929232596852e-03
	7.318929232592897e-03
	5.000000000000000e+00
	7.318929232557520e-03
	7.318929232599815e-03
	-2.392754445363766e-03
	-2.392754445367886e-03
	-2.392754445369389e-03
	-2.392754445363914e-03
	8.217661640327790e-03
	-2.392754445368024e-03
	-2.392754445370589e-03
38		1.716156856350307e-05
	5.000000000000000e+00
	5.000000000000000e+00
	5.000000000000000e+00
	5.000000000000000e+00
	5.000000000000000e+00
	5.000000000000000e+00
	-7.314168891200543e-03
	-7.314168891175545e-03
	-7.314168891206578e-03
	-7.314168891203373e-03
	5.000000000000000e+00
	-7.314168891168421e-03
	-7.314168891212250e-03
	2.392752147401492e-03
	2.392752147405612e-03
	2.392752147407115e-03
	2.392752147401639e-03
	-8.217660513369258e-03
	2.392752147405750e-03
	2.392752147408314e-03
39		3.399679151779519e-05
	5.000000000000000e+00
	5.000000000000000e+00
	5.000000000000000e+00
	5.000000000000000e+00
	5.000000000000000e+00
	5.000000000000000e+00
	7.311963103699191e-03
	7.311963103674135e-03
	7.311963103703883e-03
	7.311963103702106e-03
	5.000000000000000e+00
	7.311963103668086e-03
	7.311963103708361e-03
	-2.392751033184615e-03
	-2.392751033188735e-03
	-2.392751033190238e-03
	-2.392751033184762e-03
	8.217659803513636e-03
	-2.392751033188872e-03
	-2.392751033191437e-03
40		6.766723742637943e-05
	5.000000000000000e+00
	5.000000000000000e+00
	5.000000000000000e+00
	5.000000000000000e+00
	5.000000000000000e+00
	5.000000000000000e+00
	-7.310778106963291e-03
	-7.310778106938652e-03
	-7.310778106968228e-03
	-7.310778106965704e-03
	5.000000000000000e+00
	-7.310778106932769e-03
	-7.310778106971830e-03
	2.392750484759312e-03
	2.392750484763432e-03
	2.392750484764936e-03
	2.392750484759460e-03
	-8.217659594963126e-03
	2.392750484763570e-03
	2.392750484766135e-03
41		1.350081292435479e-04
	5.000000000000000e+00
	5.000000000000000e+00
	5.000000000000000e+00
	5.000000000000000e+00
	5.000000000000000e+00
	5.000000000000000e+00
	7.310285726084613e-03
	7.310285726057750e-03
	7.310285726088973e-03
	7.310285726085709e-03
	5.000000000000000e+00
	7.310285726054603e-03
	7.310285726091334e-03
	-2.392750212634302e-03
	-2.392750212638422e-03
	-2.392750212639925e-03
	-2.392750212634449e-03
	8.217659344311070e-03
	-2.392750212638559e-03
	-2.392750212641124e-03
42		2.696899128778849e-04
	5.000000000000000e+00
	5.000000000000000e+00
	5.000000000000000e+00
	5.000000000000000e+00
	5.000000000000000e+00
	5.000000000000000e+00
	-7.309944992089510e-03
	-7.309944992063899e-03
	-7.309944992092706e-03
	-7.309944992091801e-03
	5.000000000000000e+00
	-7.309944992059449e-03
	-7.309944992095708e-03
	2.392750077107842e-03
	2.392750077111962e-03
	2.392750077113465e-03
	2.392750077107990e-03
	-8.217659365361786e-03
	2.392750077112100e-03
	2.392750077114664e-03
43		5.390534801465589e-04
	5.000000000000000e+00
	5.000000000000000e+00
	5.000000000000000e+00
	5.000000000000000e+00
	5.000000000000000e+00
	5.000000000000000e+00
	7.309870275660604e-03
	7.309870275635323e-03
	7.309870275666989e-03
	7.309870275664793e-03
	5.000000000000000e+00
	7.309870275632326e-03
	7.309870275671254e-03
	-2.392750009472446e-03
	-2.392750009476566e-03
	-2.392750009478069e-03
	-2.392750009472593e-03
	8.217659229509568e-03
	-2.392750009476704e-03
	-2.392750009479268e-03
44		1.077780614683907e-03
	5.000000000000000e+00
	5.000000000000000e+00
	5.000000000000000e+00
	5.000000000000000e+00
	5.000000000000000e+00
	5.000000000000000e+00
	-7.309737613484141e-03
	-7.309737613459899e-03
	-7.309737613487805e-03
	-7.309737613486408e-03
	5.000000000000000e+00
	-7.309737613453919e-03
	-7.309737613493647e-03
	2.392749975688824e-03
	2.392749975692944e-03
	2.392749975694447e-03
	2.392749975688971e-03
	-8.217659307960591e-03
	2.392749975693081e-03
	2.392749975695646e-03
45		1.677780614683907e-03
	5.000000000000000e+00
	5.000000000000000e+00
	5.000000000000000e+00
	5.000000000000000e+00
	5.000000000000000e+00
	5.000000000000000e+00
	7.309739561838955e-03
	7.309739561814914e-03
	7.309739561841885e-03
	7.309739561840309e-03
	5.000000000000000e+00
	7.309739561807797e-03
	7.309739561845841e-03
	-2.392749945372942e-03
	-2.392749945377062e-03
	-2.392749945378565e-03
	-2.392749945373089e-03
	8.217659193196726e-03
	-2.392749945377199e-03
	-2.392749945379764e-03
46		2.277780614683907e-03
	5.000000000000000e+00
	5.000000000000000e+00
	5.000000000000000e+00
	5.000000000000000e+00
	5.000000000000000e+00
	5.000000000000000e+00
	-7.309613880602528e-03
	-7.309613880576549e-03
	-7.309613880606975e-03
	-7.309613880603041e-03
	5.000000000000000e+00
	-7.309613880569880e-03
	-7.309613880611242e-03
	2.392749915075127e-03
	2.392749915079247e-03
	2.392749915080750e-03
	2.392749915075274e-03
	-8.217659273601520e-03
	2.392749915079385e-03
	2.392749915081949e-03
47		2.877780614683907e-03
	5.000000000000000e+00
	5.000000000000000e+00
	5.000000000000000e+00
	5.000000000000000e+00
	5.000000000000000e+00
	5.000000000000000e+00
	7.309615670877443e-03
	7.309615670850898e-03
	7.309615670880704e-03
	7.309615670878321e-03
	5.000000000000000e+00
	7.309615670844840e-03
	7.309615670885599e-03
	-2.392749884794575e-03
	-2.392749884798695e-03
	-2.392749884800198e-03
	-2.392749884794723e-03
	8.217659158837655e-03
	-2.392749884798833e-03
	-2.392749884801398e-03
48		3.477780614683908e-03
	5.000000000000000e+00
	5.000000000000000e+00
	5.000000000000000e+00
	5.000000000000000e+00
	5.000000000000000e+00
	5.000000000000000e+00
	-7.309490058610418e-03
	-7.309490058584759e-03
	-7.309490058613611e-03
	-7.309490058611656e-03
	5.000000000000000e+00
	-7.309490058579406e-03
	-7.309490058617880e-03
	2.392749854531893e-03
	2.392749854536013e-03
	2.392749854537516e-03
	2.392749854532040e-03
	-8.217659239242782e-03
	2.392749854536150e-03
	2.392749854538715e-03
49		4.077780614683908e-03
	5.000000000000000e+00
	5.000000000000000e+00
	5.000000000000000e+00
	5.000000000000000e+00
	5.000000000000000e+00
	5.000000000000000e+00
	7.309491889407679e-03
	7.309491889379380e-03
	7.309491889410438e-03
	7.309491889408531e-03
	5.000000000000000e+00
	7.309491889374148e-03
	7.309491889415340e-03
	-2.392749824286462e-03
	-2.392749824290582e-03
	-2.392749824292086e-03
	-2.392749824286610e-03
	8.217659124477252e-03
	-2.392749824290720e-03
	-2.392749824293285e-03
50		4.677780614683907e-03
	5.000000000000000e+00
	5.000000000000000e+00
	5.000000000000000e+00
	5.000000000000000e+00
	5.000000000000000e+00
	5.000000000000000e+00
	-7.309366369904686e-03
	-7.309366369879229e-03
	-7.309366369908681e-03
	-7.309366369907424e-03
	5.000000000000000e+00
	-7.309366369875770e-03
	-7.309366369912979e-03
	2.392749794058879e-03
	2.392749794063000e-03
	2.392749794064503e-03
	2.392749794059027e-03
	-8.217659204883489e-03
	2.392749794063137e-03
	2.392749794065702e-03
51		5.000010000000001e-03
	5.000000000000000e+00
	5.000000000000000e+00
	5.000000000000000e+00
	5.000000000000000e+00
	5.000000000000000e+00
	5.000000000000000e+00
	7.309315054631818e-03
	7.309315054605115e-03
	7.309315054634587e-03
	7.309315054633190e-03
	5.000000000000000e+00
	7.309315054600595e-03
	7.309315054636966e-03
	-2.392749737820303e-03
	-2.392749737824423e-03
	-2.392749737825926e-03
	-2.392749737820451e-03
	8.217659075310581e-03
	-2.392749737824561e-03
	-2.392749737827125e-03
52		5.000011000000001e-03
	4.499999999829497e+00
	4.499999999829497e+00
	5.000000000000000e+00
	4.499999999829497e+00
	4.499999999829497e+00
	4.499999999829497e+00
	-7.308464480532809e-01
	-7.308464480532806e-01
	-7.308464480532813e-01
	-7.308464480532813e-01
	4.499999999829497e+00
	-7.308464480532809e-01
	-7.308464480532815e-01
	2.135884970649391e-02
	2.135884970649396e-02
	2.135884970649394e-02
	2.135884970649383e-02
	-7.213548236672503e-02
	2.135884970649388e-02
	2.135884970649383e-02
53		5.000013000000001e-03
	3.499999999922173e+00
	3.499999999922173e+00
	5.000000000000000e+00
	3.499999999922173e+00
	3.499999999922173e+00
	3.499999999922173e+00
	-8.928337333773273e-01
	-8.928337333773275e-01
	-8.928337333773267e-01
	-8.928337333773272e-01
	3.499999999922173e+00
	-8.928337333773274e-01
	-8.928337333773273e-01
	1.123545864881411e-01
	1.123545864881410e-01
	1.123545864881410e-01
	1.123545864881411e-01
	-1.326979066655385e-01
	1.123545864881410e-01
	1.123545864881411e-01
54		5.000014397264755e-03
	2.801367622712184e+00
	2.801367622712184e+00
	5.000000000000000e+00
	2.801367622712184e+00
	2.801367622712184e+00
	2.801367622712184e+00
	-8.171008078380128e-01
	-8.171008078380124e-01
	-8.171008078380138e-01
	-8.171008078380131e-01
	2.801367622712184e+00
	-8.171008078380134e-01
	-8.171008078380133e-01
	4.902478004393220e-02
	4.902478004393257e-02
	4.902478004393237e-02
	4.902478004393231e-02
	-1.114715671773645e-01
	4.902478004393235e-02
	4.902478004393231e-02
55		5.000016173238521e-03
	1.913380739902574e+00
	1.913380739902574e+00
	5.000000000000000e+00
	1.913380739902574e+00
	1.913380739902574e+00
	1.913380739902574e+00
	-8.521488311686123e-01
	-8.521488311686127e-01
	-8.521488311686127e-01
	-8.521488311686130e-01
	1.913380739902574e+00
	-8.521488311686127e-01
	-8.521488311686127e-01
	9.567454484025703e-02
	9.567454484025661e-02
	9.567454484025671e-02
	9.567454484025688e-02
	-1.090703817642773e-01
	9.567454484025689e-02
	9.567454484025677e-02
56		5.000019047632804e-03
	4.761835986583076e-01
	4.761835986583076e-01
	5.000000000000000e+00
	4.761835986583076e-01
	4.761835986583076e-01
	4.761835986583076e-01
	-8.264235801725059e-01
	-8.264235801725054e-01
	-8.264235801725051e-01
	-8.264235801725059e-01
	4.761835986583076e-01
	-8.264235801725058e-01
	-8.264235801725057e-01
	5.095768137918383e-02
	5.095768137918421e-02
	5.095768137918424e-02
	5.095768137918402e-02
	-1.219441579633209e-01
	5.095768137918399e-02
	5.095768137918408e-02
57		5.000020000000001e-03
	0.000000000000000e+00
	0.000000000000000e+00
	5.000000000000000e+00
	0.000000000000000e+00
	0.000000000000000e+00
	0.000000000000000e+00
	-8.334894468258141e-01
	-8.334894468258127e-01
	-8.334894468258149e-01
	-8.334894468258129e-01
	0.000000000000000e+00
	-8.334894468258128e-01
	-8.334894468258152e-01
	8.334234458614523e-02
	8.334234458614517e-02
	8.334234458614494e-02
	8.334234458614505e-02
	-1.041378287216926e-01
	8.334234458614542e-02
	8.334234458614527e-02
58		5.000020054735714e-03
	0.000000000000000e+00
	0.000000000000000e+00
	5.000000000000000e+00
	0.000000000000000e+00
	0.000000000000000e+00
	0.000000000000000e+00
	-8.072483350229452e-01
	-8.072483350229738e-01
	-8.072483350229691e-01
	-8.072483350229580e-01
	0.000000000000000e+00
	-8.072483350229746e-01
	-8.072483350229613e-01
	3.852462810299240e-02
	3.852462810299162e-02
	3.852462810299308e-02
	3.852462810299215e-02
	-7.684935283576694e-02
	3.852462810299251e-02
	3.852462810299129e-02
59		5.000020164207142e-03
	0.000000000000000e+00
	0.000000000000000e+00
	5.000000000000000e+00
	0.000000000000000e+00
	0.000000000000000e+00
	0.000000000000000e+00
	-7.662918685003201e-01
	-7.662918685003012e-01
	-7.662918685002847e-01
	-7.662918685003183e-01
	0.000000000000000e+00
	-7.662918685003103e-01
	-7.662918685003084e-01
	2.199175934110409e-02
	2.199175934110109e-02
	2.199175934110295e-02
	2.199175934110211e-02