Title: kicad schematic
Date: Wed Jan 14 21:34:55  2026
Plotname: Transient Analysis
Flags: real
No. Variables: 16
No. Points: 411     
Variables:
	0	time	time
	1	v(net-_r1-pad1_)	voltage
	2	v(vout)	voltage
	3	v(net-_r2-pad2_)	voltage
	4	v(x1.net-_q1-pad1_)	voltage
	5	v(x1.net-_c1-pad1_)	voltage
	6	v(x1.net-_q3-pad1_)	voltage
	7	v(q.x1.q5#collCX)	voltage
	8	v(q.x1.q7#collCX)	voltage
	9	v(q.x1.q4#collCX)	voltage
	10	v(q.x1.q1#collCX)	voltage
	11	v(q.x1.q2#collCX)	voltage
	12	v(q.x1.q3#collCX)	voltage
	13	v(q.x1.q6#collCX)	voltage
	14	v(q.x1.q8#collCX)	voltage
	15	i(vv1)	current
Values:
0		0.000000000000000e+00
	0.000000000000000e+00
	1.654159906033972e-26
	-8.483787240632981e-28
	1.820340324128096e-19
	2.735068506465347e-18
	4.253260273697217e-18
	4.253260273700947e-18
	4.253260273700947e-18
	2.735068506472120e-18
	1.820340324152116e-19
	2.735068506463559e-18
	4.253260273694535e-18
	-8.482339033050601e-28
	-8.482339033050601e-28
	7.518908663790782e-30
1		1.000000000000001e-07
	6.283184893762575e-04
	3.628472996444402e-04
	5.865705640292355e-06
	2.106122467272386e-04
	5.016716859107147e-05
	4.245356380545921e-05
	4.245355793950954e-05
	4.245355793950954e-05
	5.016659868036203e-05
	2.106005269009856e-04
	5.018410604413858e-05
	4.247131402305785e-05
	5.887311035104204e-06
	5.887311035104204e-06
	-1.206687226053715e-07
2		1.212180328272409e-07
	7.616352891893587e-04
	4.522548645744124e-04
	6.884682212857589e-06
	2.623812420078657e-04
	6.239086571949902e-05
	5.266113932146926e-05
	5.266113421871862e-05
	5.266113421871862e-05
	6.239016768440853e-05
	2.623676272430970e-04
	6.241053661951234e-05
	5.268181133685803e-05
	6.909917795376338e-06
	6.909917795376338e-06
	-1.406274657340665e-07
3		1.636540984817227e-07
	1.028268845835576e-03
	6.503807147847268e-04
	8.485079812192710e-06
	3.769008705802964e-04
	8.926341000194388e-05
	7.489217653089463e-05
	7.489217355375085e-05
	7.489217355375085e-05
	8.926250411682611e-05
	3.768843101203141e-04
	8.928733233847499e-05
	7.491740327680023e-05
	8.515991727287364e-06
	8.515991727287364e-06
	-1.717673322958406e-07
4		2.485262297906862e-07
	1.561535720862376e-03
	1.120707196105883e-03
	9.958336537247973e-06
	6.480567724728253e-04
	1.522937977555619e-04
	1.262910442372230e-04
	1.262910434852627e-04
	1.262910434852627e-04
	1.522926985273289e-04
	6.480375077660221e-04
	1.523216228396613e-04
	1.263204549100247e-04
	9.994466160461306e-06
	9.994466160461306e-06
	-2.003766021620420e-07
5		4.182704924086132e-07
	2.628067987088195e-03
	2.161435385163934e-03
	1.056019725885005e-05
	1.247341017480781e-03
	2.908939123917043e-04
	2.384482179594403e-04
	2.384482179508047e-04
	2.384482179508047e-04
	2.908927348440746e-04
	1.247320638486975e-03
	2.909233419472810e-04
	2.384793463680788e-04
	1.059846058248556e-05
	1.059846058248556e-05
	-2.121057281473914e-07
6		6.783611965389530e-07
	4.262256197669680e-03
	3.797550065086751e-03
	1.051591295013722e-05
	2.189437070605361e-03
	5.084561948620269e-04
	4.141623987035644e-04
	4.141623987450869e-04
	4.141623987450869e-04
	5.084550214742084e-04
	2.189416769361020e-03
	5.084855069338339e-04
	4.141934015161762e-04
	1.055401255648945e-05
	1.055401255648945e-05
	-2.112300602649675e-07
7		1.198542604799633e-06
	7.530594106215349e-03
	7.065453351745480e-03
	1.052397033722328e-05
	4.072173668951116e-03
	9.430190285270038e-04
	7.651037028735923e-04
	7.651037028261067e-04
	7.651037028261067e-04
	9.430178531069935e-04
	4.072153335150667e-03
	9.430483761613688e-04
	7.651347409020272e-04
	1.056209353894054e-05
	1.056209353894054e-05
	-2.114276156681219e-07
8		2.238905421320992e-06
	1.406699367591196e-02
	1.360257543325470e-02
	1.050644391972163e-05
	7.842405122107435e-03
	1.812235987942292e-03
	1.466789913957630e-03
	1.466789914003553e-03
	1.466789914003553e-03
	1.812234810655175e-03
	7.842384795470829e-03
	1.812265303338228e-03
	1.466820915118352e-03
	1.054448682202151e-05
	1.054448682202151e-05
	-2.110992012078462e-07
9		4.319631054363709e-06
	2.713771031697525e-02
	2.667374227390732e-02
	1.049123211718629e-05
	1.539710204006804e-02
	3.549969041708162e-03
	2.868569935737636e-03
	2.868569935685200e-03
	2.868569935685200e-03
	3.549967860290324e-03
	1.539708168167835e-02
	3.549998358363833e-03
	2.868600930309587e-03
	1.052919316404072e-05
	1.052919316404072e-05
	-2.108945650308782e-07
10		8.481082320449145e-06
	5.326299557325668e-02
	5.280100060012112e-02
	1.043958033993088e-05
	3.056145951205168e-02
	7.022175835681547e-03
	5.665384669904314e-03
	5.665384669944267e-03
	5.665384669944267e-03
	7.022174646694692e-03
	3.056143914149910e-02
	7.022205082196100e-03
	5.665415577219143e-03
	1.047729509211788e-05
	1.047729509211788e-05
	-2.099977150616174e-07
11		1.680398485262002e-05
	1.053864933786239e-01
	1.049284777985878e-01
	1.033350348857080e-05
	6.106806518376762e-02
	1.394429986018235e-02
	1.122484709313371e-02
	1.122484709306704e-02
	1.122484709306704e-02
	1.394429865900873e-02
	6.106804479360374e-02
	1.394432896173751e-02
	1.122487781928780e-02
	1.037072759477347e-05
	1.037072759477347e-05
	-2.081889000164400e-07
12		2.680398485262002e-05
	1.676193975885502e-01
	1.671683988359129e-01
	1.015948360078170e-05
	9.792665730203763e-02
	2.219875153339874e-02
	1.782645807485432e-02
	1.782645807487242e-02
	1.782645807487242e-02
	2.219875032326276e-02
	9.792663700344391e-02
	2.219878030377968e-02
	1.782648842144091e-02
	1.019595552701813e-05
	1.019595552701813e-05
	-2.049994330169641e-07
13		3.680398485262003e-05
	2.291907846142131e-01
	2.287478674461154e-01
	9.961299860822513e-06
	1.348523369920256e-01
	3.035304507420597e-02
	2.431861094491256e-02
	2.431861094481889e-02
	2.431861094481889e-02
	3.035304386124857e-02
	1.348523168467324e-01
	3.035307343546183e-02
	2.431864083022601e-02
	9.996948480815964e-06
	9.996948480815964e-06
	-2.013259854989505e-07
14		4.680398485262003e-05
	2.898576603203132e-01
	2.894249013550373e-01
	9.720112496573609e-06
	1.716764586026533e-01
	3.837444559930674e-02
	3.067691310073175e-02
	3.067691310071960e-02
	3.067691310071960e-02
	3.837444438955687e-02
	1.716764387232294e-01
	3.837447340387101e-02
	3.067694237336221e-02
	9.754790091499267e-06
	9.754790091499267e-06
	-1.967086205799352e-07
15		5.680398485262004e-05
	3.493806002644976e-01
	3.489589848868198e-01
	9.456588528987960e-06
	2.082255302040452e-01
	4.623087607474704e-02
	3.687788150837577e-02
	3.687788150824724e-02
	3.687788150824724e-02
	4.623087487467291e-02
	2.082255106524792e-01
	4.623090324951805e-02
	3.687791009224640e-02
	9.490231724390551e-06
	9.490231724390551e-06
	-1.916433534899196e-07
16		6.680398485262005e-05
	4.075246945962514e-01
	4.071161544610648e-01
	9.153344835531925e-06
	2.443248364939516e-01
	5.389155154421034e-02
	4.289937199362150e-02
	4.289937199356968e-02
	4.289937199356968e-02
	5.389155035987268e-02
	2.443248173794427e-01
	5.389157795098042e-02
	4.289939974762400e-02
	9.185818434883295e-06
	9.185818434883295e-06
	-1.857000614484666e-07
17		7.680398485262005e-05
	4.640604751387570e-01
	4.636659036984016e-01
	8.829776645827866e-06
	2.797971664399207e-01
	6.132657743634978e-02
	4.872024043633669e-02
	4.872024043616228e-02
	4.872024043616228e-02
	6.132657627433735e-02
	2.797971478228886e-01
	6.132660300830909e-02
	4.872026729131816e-02
	8.861025045346943e-06
	8.861025045346943e-06
	-1.793506547070119e-07
18		8.680398485262004e-05
	5.187648209949545e-01
	5.183859957190083e-01
	8.469893667364622e-06
	3.144664144519449e-01
	6.850753850446684e-02
	5.432073432363112e-02
	5.432073432352690e-02
	5.432073432352690e-02
	6.850753737067843e-02
	3.144663964365941e-01
	6.850756311393155e-02
	5.432076014978759e-02
	8.499794026477260e-06
	8.499794026477260e-06
	-1.721933072482444e-07
19		9.680398485262004e-05
	5.714218391037875e-01
	5.710595473160245e-01
	8.091952917900426e-06
	3.481564401044022e-01
	7.540711652980948e-02
	5.968217328533812e-02
	5.968217328510352e-02
	5.968217328510352e-02
	7.540711543076221e-02
	3.481564227479154e-01
	7.540714011765240e-02
	5.968219802169508e-02
	8.120457791510726e-06
	8.120457791510726e-06
	-1.646780853468044e-07
20		1.068039848526200e-04
	6.218237162714840e-01
	6.214795684231255e-01
	7.681338103026187e-06
	3.806946216923708e-01
	8.199965011906107e-02
	6.478732212411918e-02
	6.478732212394683e-02
	6.478732212394683e-02
	8.199964906031715e-02
	3.806946050925060e-01
	8.199967256940098e-02
	6.478734565330414e-02
	7.708337369846553e-06
	7.708337369846553e-06
	-1.564308401629877e-07
21		1.168039848526200e-04
	6.697715393152904e-01
	6.694461967611499e-01
	7.255346568149290e-06
	4.119108215565578e-01
	8.826078954723378e-02
	6.962011078009277e-02
	6.962011077978122e-02
	6.962011077978122e-02
	8.826078853506893e-02
	4.119108057657801e-01
	8.826081081031650e-02
	6.962013305087282e-02
	7.280802009711507e-06
	7.280802009711507e-06
	-1.478829791547826e-07
22		1.268039848526200e-04
	7.150760800829296e-01
	7.147709655803769e-01
	6.800767181290612e-06
	4.416408509732723e-01
	9.416804533749933e-02
	7.416600944922822e-02
	7.416600944897041e-02
	7.416600944897041e-02
	9.416804437699033e-02
	4.416408360816389e-01
	9.416806531100655e-02
	7.416603035828327e-02
	6.824582616264272e-06
	6.824582616264272e-06
	-1.386884102511717e-07
23		1.368039848526200e-04
	7.575585422496675e-01
	7.572741634115339e-01
	6.334115337058456e-06
	4.697254975293618e-01
	9.970048394455913e-02
	7.841179302701387e-02
	7.841179302660828e-02
	7.841179302660828e-02
	9.970048304159793e-02
	4.697254835833498e-01
	9.970050259031878e-02
	7.841181253494563e-02
	6.356263681500432e-06
	6.356263681500432e-06
	-1.292631082425210e-07
24		1.468039848526200e-04
	7.970512669457226e-01
	7.967888326407258e-01
	5.843556636912550e-06
	4.960138518464821e-01
	1.048392509750062e-01
	8.234590338300121e-02
	8.234590338264193e-02
	8.234590338264193e-02
	1.048392501340611e-01
	4.960138389273846e-01
	1.048392682063670e-01
	8.234592140252341e-02
	5.863957483263456e-06
	5.863957483263456e-06
	-1.192883204531006e-07
25		1.568039848526200e-04
	8.333983944292296e-01
	8.331582330316760e-01
	5.344814013576608e-06
	5.203623426831991e-01
	1.095672564295282e-01
	8.595820290928277e-02
	8.595820290876924e-02
	8.595820290876924e-02
	1.095672556559844e-01
	5.203623308303844e-01
	1.095672722218754e-01
	8.595821941471227e-02
	5.363453226902517e-06
	5.363453226902517e-06
	-1.091642716152265e-07
26		1.668039848526200e-04
	8.664564791934339e-01
	8.662395747601705e-01
	4.827090235657398e-06
	5.426378650568241e-01
	1.138695852027592e-01
	8.924022904083848e-02
	8.924022904036699e-02
	8.924022904036699e-02
	1.138695845003614e-01
	5.426378543418192e-01
	1.138695994859822e-01
	8.924024396170759e-02
	4.843903769734770e-06
	4.843903769734770e-06
	-9.859292421062274e-08
27		1.768039848526200e-04
	8.960950560805735e-01
	8.959015656921430e-01
	4.304870600493593e-06
	5.627167608949015e-01
	1.177330488671425e-01
	9.218480353951368e-02
	9.218480353888581e-02
	9.218480353888581e-02
	1.177330482406384e-01
	5.627167513487942e-01
	1.177330616295406e-01
	9.218481686316114e-02
	4.319856227709052e-06
	4.319856227709052e-06
	-8.795017655935551e-08
28		1.868039848526200e-04
	9.221971551682528e-01
	9.220278789057635e-01
	3.767617595002290e-06
	5.804876892033046e-01
	1.211463595435918e-01
	9.478604486709508e-02
	9.478604486651031e-02
	9.478604486651031e-02
	1.211463589958640e-01
	5.804876808866755e-01
	1.211463707284335e-01
	9.478605653668003e-02
	3.780723749295436e-06
	3.780723749295436e-06
	-7.694375567696447e-08
29		1.968039848526200e-04
	9.446597633962874e-01
	9.445147591764727e-01
	3.227835938186210e-06
	5.958505059578594e-01
	1.240994652323532e-01
	9.703874389132733e-02
	9.703874389059026e-02
	9.703874389059026e-02
	1.240994647673483e-01
	5.958504988920925e-01
	1.240994748352207e-01
	9.703875390159196e-02
	3.239065694043240e-06
	3.239065694043240e-06
	-6.591100900672385e-08
30		2.068039848526200e-04
	9.633942311121908e-01
	9.632742174653453e-01
	2.674530245444205e-06
	6.087188516744980e-01
	1.265835080126474e-01
	9.893815769475484e-02
	9.893815769406868e-02
	9.893815769406868e-02
	1.265835076322174e-01
	6.087188459078086e-01
	1.265835159822364e-01
	9.893816599456121e-02
	2.683835303404899e-06
	2.683835303404899e-06
	-5.455165765703811e-08
31		2.168039848526200e-04
	9.783266219308524e-01
	9.782316684191437e-01
	2.118025019825823e-06
	6.190189350183829e-01
	1.285901039942279e-01
	1.004793276756186e-01
	1.004793276747913e-01
	1.004793276747913e-01
	1.285901037013455e-01
	6.190189305609474e-01
	1.285901103247607e-01
	1.004793342585194e-01
	2.125403830189699e-06
	2.125403830189699e-06
	-4.316068714037800e-08
32		2.268039848526200e-04
	9.893980045276716e-01
	9.893288451348228e-01
	1.547197217164478e-06
	6.266918700271896e-01
	1.301113931450838e-01
	1.016569886356308e-01
	1.016569886348693e-01
	1.016569886348693e-01
	1.301113929404305e-01
	6.266918669136449e-01
	1.301113977831340e-01
	1.016569934486739e-01
	1.552596083339413e-06
	1.552596083339413e-06
	-3.143608765855156e-08
33		2.368039848526200e-04
	9.965646852135720e-01
	9.965214504444142e-01
	9.713247482801798e-07
	6.316924121309934e-01
	1.311396530717787e-01
	1.024652515055076e-01
	1.024652515046228e-01
	1.024652515046228e-01
	1.311396529572561e-01
	6.316924103593845e-01
	1.311396560063226e-01
	1.024652545371825e-01
	9.747330353107601e-07
	9.747330353107601e-07
	-1.965216779901361e-08
34		2.468039848526201e-04
	9.997983803740317e-01
	9.997818024840383e-01
	3.807397100702013e-07
	6.339910901411839e-01
	1.316678055642298e-01
	1.028980226325513e-01
	1.028980226317529e-01
	1.028980226317529e-01
	1.316678055393267e-01
	6.339910897322782e-01
	1.316678067410101e-01
	1.028980238293445e-01
	3.820997399302620e-07
	3.820997399302620e-07
	-7.535404542425954e-09
35		2.568039848526201e-04
	9.990863280915868e-01
	9.990965037697900e-01
	-2.144827278718457e-07
	6.335729107134143e-01
	1.316895707508663e-01
	1.029492739339904e-01
	1.029492739330911e-01
	1.029492739330911e-01
	1.316895708164570e-01
	6.335729116533246e-01
	1.316895701608931e-01
	1.029492732865302e-01
	-2.151824469900262e-07
	-2.151824469900262e-07
	4.625308274190318e-09
36		2.668039848526201e-04
	9.944313385112906e-01
	9.944688432775142e-01
	-8.211209346243390e-07
	6.304392549825626e-01
	1.312003871617148e-01
	1.026139242581170e-01
	1.026139242573274e-01
	1.026139242573274e-01
	1.312003873162070e-01
	6.304392572789771e-01
	1.312003847618778e-01
	1.026139217241862e-01
	-8.239285087661160e-07
	-8.239285087661160e-07
	1.704762101070127e-08
37		2.768039848526201e-04
	9.858517827503540e-01
	9.859164922598317e-01
	-1.427537773718603e-06
	6.246064687656692e-01
	1.301977921432950e-01
	1.018883564663220e-01
	1.018883564654546e-01
	1.018883564654546e-01
	1.301977923866747e-01
	6.246064723937739e-01
	1.301977879410971e-01
	1.018883520530193e-01
	-1.432449164620938e-06
	-1.432449164620938e-06
	2.941341339891476e-08
38		2.868039848526202e-04
	9.733815203957393e-01
	9.734736785683581e-01
	-2.037914830335948e-06
	6.161074048254388e-01
	1.286822532692047e-01
	1.007712173786257e-01
	1.007712173778901e-01
	1.007712173778901e-01
	1.286822535989465e-01
	6.161074097809847e-01
	1.286822472462157e-01
	1.007712110684436e-01
	-2.044953221259202e-06
	-2.044953221259202e-06
	4.189007846307734e-08
39		2.968039848526202e-04
	9.570697658758391e-01
	9.571888991596372e-01
	-2.640165183770311e-06
	6.049897691996952e-01
	1.266572288600125e-01
	9.926359195335932e-02
	9.926359195256546e-02
	9.926359195256546e-02
	1.266572292753279e-01
	6.049897754478202e-01
	1.266572210501345e-01
	9.926358377969854e-02
	-2.649299733510319e-06
	-2.649299733510319e-06
	5.415149263547636e-08
40		3.068039848526202e-04
	9.369808942336116e-01
	9.371268602247256e-01
	-3.237619514544178e-06
	5.913172070313780e-01
	1.241294875644315e-01
	9.736926524737782e-02
	9.736926524673233e-02
	9.736926524673233e-02
	1.241294880619363e-01
	5.913172145565413e-01
	1.241294779781638e-01
	9.736925522166388e-02
	-3.248843597116270e-06
	-3.248843597116270e-06
	6.634817777909779e-08
41		3.168039848526202e-04
	9.131941870676965e-01
	9.133661820107555e-01
	-3.819495936063098e-06
	5.751673539896273e-01
	1.211086605741213e-01
	9.509435130510094e-02
	9.509435130440999e-02
	9.509435130440999e-02
	1.211086611522729e-01
	5.751673627471513e-01
	1.211086492703034e-01
	9.509433948561019e-02
	-3.832753467712463e-06
	-3.832753467712463e-06
	7.817951957225745e-08
42		3.268039848526203e-04
	8.858035196441647e-01
	8.860010954731596e-01
	-4.389738660832099e-06
	5.566324830625654e-01
	1.176071294220114e-01
	9.244710420823023e-02
	9.244710420769649e-02
	9.244710420769649e-02
	1.176071300765593e-01
	5.566324930257026e-01
	1.176071164338706e-01
	9.244709062919770e-02
	-4.405000120905135e-06
	-4.405000120905135e-06
	8.980719499773792e-08
43		3.368039848526203e-04
	8.549169904137310e-01
	8.551391258794709e-01
	-4.939633066588343e-06
	5.358173350284793e-01
	1.136393563482528e-01
	8.943731171737880e-02
	8.943731171680440e-02
	8.943731171680440e-02
	1.136393570768730e-01
	5.358173461426802e-01
	1.136393417508853e-01
	8.943729645338871e-02
	-4.956826840409535e-06
	-4.956826840409535e-06
	1.009706662454088e-07
44		3.468039848526203e-04
	8.206564943965554e-01
	8.209025546339817e-01
	-5.473880046580019e-06
	5.128394421049191e-01
	1.092217229364869e-01
	8.607606856066673e-02
	8.607606856025055e-02
	8.607606856025055e-02
	1.092217237340512e-01
	5.128394543323579e-01
	1.092217067767218e-01
	8.607605165975685e-02
	-5.492963921712787e-06
	-5.492963921712787e-06
	1.118455624664664e-07
45		3.568039848526203e-04
	7.831572421182856e-01
	7.834260879477716e-01
	-5.985371970498713e-06
	4.878268622159896e-01
	1.043719929446432e-01
	8.237531744529496e-02
	8.237531744483589e-02
	8.237531744483589e-02
	1.043719938080556e-01
	4.878268754925352e-01
	1.043719753061966e-01
	8.237529899083910e-02
	-6.006267299185554e-06
	-6.006267299185554e-06
	1.222026497663489e-07
46		3.668039848526204e-04
	7.425672259958854e-01
	7.428581063496192e-01
	-6.478873157961995e-06
	4.609182966541524e-01
	9.910934447392065e-02
	7.834784615943018e-02
	7.834784615912448e-02
	7.834784615912448e-02
	9.910934539722838e-02
	4.609183109315590e-01
	9.910932541184153e-02
	7.834782620798887e-02
	-6.501530941535613e-06
	-6.501530941535613e-06
	1.322183426062749e-07
47		3.768039848526204e-04
	6.990466362791753e-01
	6.993583313129114e-01
	-6.948088084808988e-06
	4.322608157955594e-01
	9.345406198779298e-02
	7.400707989690619e-02
	7.400707989655074e-02
	7.400707989655074e-02
	9.345406296721306e-02
	4.322608310009879e-01
	9.345404159159271e-02
	7.400705853790848e-02
	-6.972425606293808e-06
	-6.972425606293808e-06
	1.416795607890944e-07
48		3.868039848526204e-04
	6.527672288531010e-01
	6.530988834757143e-01
	-7.397242520458853e-06
	4.020098339077544e-01
	8.742773466720828e-02
	6.936727145694410e-02
	6.936727145673381e-02
	6.936727145673381e-02
	8.742773569608685e-02
	4.020098499837194e-01
	8.742771299926450e-02
	6.936724875465766e-02
	-7.423204698929143e-06
	-7.423204698929143e-06
	1.507521011878373e-07
49		3.968039848526205e-04
	6.039116473957228e-01
	6.042619550191362e-01
	-7.820415390176296e-06
	3.703268612970046e-01
	8.105307205103003e-02
	6.444342984230599e-02
	6.444342984203703e-02
	6.444342984203703e-02
	8.105307312503943e-02
	3.703268781632348e-01
	8.105304920713256e-02
	6.444340589277243e-02
	-7.847914515797491e-06
	-7.847914515797491e-06
	1.592307379151667e-07
50		4.068039848526205e-04
	5.526727025670616e-01
	5.530406911807626e-01
	-8.221124798499407e-06
	3.373793614788902e-01
	7.435414026063626e-02
	5.925156355007401e-02
	5.925156354994103e-02
	5.925156354994103e-02
	7.435414137258606e-02
	3.373793790701055e-01
	7.435411631147734e-02
	5.925153842632828e-02
	-8.250098118926120e-06
	-8.250098118926120e-06
	1.672675516822797e-07
51		4.168039848526205e-04
	4.992526110735086e-01
	4.996368722699326e-01
	-8.593766840517227e-06
	3.033385446184207e-01
	6.735618730633468e-02
	5.380862139746784e-02
	5.380862139726731e-02
	5.380862139726731e-02
	6.735618845152161e-02
	3.033385628483524e-01
	6.735616235508747e-02
	5.380859520335420e-02
	-8.624119837736596e-06
	-8.624119837736596e-06
	1.746641801927528e-07
52		4.268039848526205e-04
	4.438621976108700e-01
	4.442616314144193e-01
	-8.941238488595122e-06
	2.683791279541612e-01
	6.008583893744049e-02
	4.813270332593199e-02
	4.813270332585896e-02
	4.813270332585896e-02
	6.008584010831877e-02
	2.683791467512662e-01
	6.008581306386668e-02
	4.813267614410223e-02
	-8.972899198651109e-06
	-8.972899198651109e-06
	1.815608197951212e-07
53		4.368039848526206e-04
	3.867200628356110e-01
	3.871331514905652e-01
	-9.258328610725716e-06
	2.326771902391987e-01
	5.257089067649221e-02
	4.224296652852085e-02
	4.224296652837261e-02
	4.224296652837261e-02
	5.257089186816329e-02
	2.326772095127056e-01
	5.257086399157034e-02
	4.224293847115423e-02
	-9.291194426941301e-06
	-9.291194426941301e-06
	1.877675704337436e-07
54		4.468039848526206e-04
	3.280517206479313e-01
	3.284772342731236e-01
	-9.547433637702998e-06
	1.964098654607138e-01
	4.484044893636355e-02
	3.615978755400289e-02
	3.615978755397525e-02
	3.615978755397525e-02
	4.484045014111664e-02
	1.964098851344053e-01
	4.484042152886104e-02
	3.615975871342553e-02
	-9.581422498023472e-06
	-9.581422498023472e-06
	1.934152841783052e-07
55		4.568039848526206e-04
	2.680887081914289e-01
	2.685250206199359e-01
	-9.803792685554641e-06
	1.597532865389386e-01
	3.692469051468322e-02
	2.990463415693190e-02
	2.990463415682311e-02
	2.990463415682311e-02
	3.692469172761389e-02
	1.597533065191084e-01
	3.692466250302147e-02
	2.990460465343051e-02
	-9.838793191381222e-06
	-9.838793191381222e-06
	1.983238311395436e-07
56		4.668039848526206e-04
	2.070676720817749e-01
	2.075134283979986e-01
	-1.002937978594338e-05
	1.228822492883300e-01
	2.885495686390719e-02
	2.350018628888230e-02
	2.350018628888896e-02
	2.350018628888896e-02
	2.885495807733883e-02
	1.228822694957659e-01
	2.885492834511940e-02
	2.350015622385965e-02
	-1.006529929951397e-05
	-1.006529929951397e-05
	2.026165073744168e-07
57		4.768039848526207e-04
	1.452294344706354e-01
	1.456829063014005e-01
	-1.021990200260172e-05
	8.596827813637889e-02
	2.066348835842129e-02
	1.697018064179180e-02
	1.697018064171310e-02
	1.697018064171310e-02
	2.066348956764167e-02
	8.596829847611927e-02
	2.066345945743406e-02
	1.697015014285517e-02
	-1.025661987893717e-05
	-1.025661987893717e-05
	2.061235594386454e-07
58		4.868039848526207e-04
	8.281804263065777e-02
	8.327775891560990e-02
	-1.037695647236870e-05
	4.917930016312531e-02
	1.238347719037569e-02
	1.033949474206628e-02
	1.033949474209941e-02
	1.033949474209941e-02
	1.238347838794875e-02
	4.917932055476305e-02
	1.238344801124743e-02
	1.033946391860687e-02
	-1.041436913467397e-05
	-1.041436913467397e-05
	2.089619477055142e-07
59		4.968039848526207e-04
	2.007980581238155e-02
	2.054394553505584e-02
	-1.049671761197359e-05
	1.267786705779058e-02
	4.048778238650284e-03
	3.633964262230649e-03
	3.633964262175591e-03
	3.633964262175591e-03
	4.048779420258611e-03
	1.267788740691773e-02
	4.048748911406908e-03
	3.633933247923694e-03
	-1.053469474691596e-05
	-1.053469474691596e-05
	2.109726012155853e-07
60		5.068039848526207e-04
	-4.273767682584546e-02
	-4.227068895979902e-02
	-1.058044089079944e-05
	-2.337911979562965e-02
	-4.306079235925273e-03
	-3.119572394751313e-03
	-3.119572394696965e-03
	-3.119572394696965e-03
	-4.306078077270433e-03
	-2.337909956868411e-02
	-4.306108601900861e-03
	-3.119603484081076e-03
	-1.061886759989295e-05
	-1.061886759989295e-05
	2.122672118392888e-07
61		5.168039848526207e-04
	-1.053864933786281e-01
	-1.049185583805570e-01
	-1.062476767963091e-05
	-5.884199621406658e-02
	-1.264620574094799e-02
	-9.893488801467797e-03
	-9.893488801503460e-03
	-9.893488801503460e-03
	-1.264620460897080e-02
	-5.884197620120775e-02
	-1.264623501241117e-02
	-9.893519827822290e-03
	-1.066350352679762e-05
	-1.066350352679762e-05
	2.126977263959643e-07
62		5.268039848526207e-04
	-1.676193975885545e-01
	-1.671521797647119e-01
	-1.063065229745393e-05
	-9.356851683845620e-02
	-2.093638229528107e-02
	-1.665937069177188e-02
	-1.665937069169976e-02
	-1.665937069169976e-02
	-2.093638119632656e-02
	-9.356849711652471e-02
	-2.093641135971652e-02
	-1.665940153497054e-02
	-1.066957065244481e-05
	-1.066957065244481e-05
	2.123717381102418e-07
63		5.368039848526208e-04
	-2.291907846142177e-01
	-2.287262484240447e-01
	-1.059521931237437e-05
	-1.274252131760077e-01
	-2.914140053851754e-02
	-2.338826774163176e-02
	-2.338826774165081e-02
	-2.338826774165081e-02
	-2.914139947553509e-02
	-1.274251938322131e-01
	-2.914142926184923e-02
	-2.338829826165448e-02
	-1.063416917727705e-05
	-1.063416917727705e-05
	2.111528137150258e-07
64		5.468039848526208e-04
	-2.898576603203178e-01
	-2.893975388991236e-01
	-1.051919577122160e-05
	-1.602874321382431e-01
	-3.722613457785889e-02
	-3.005074177847228e-02
	-3.005074177838468e-02
	-3.005074177838468e-02
	-3.722613355637740e-02
	-1.602874132440570e-01
	-3.722616284713070e-02
	-3.005077185343267e-02
	-1.055803848531612e-05
	-1.055803848531612e-05
	2.091461005428348e-07
65		5.568039848526208e-04
	-3.493806002645022e-01
	-3.489268975330548e-01
	-1.040028549432767e-05
	-1.920404093885452e-01
	-4.515590297163382e-02
	-3.661715562876237e-02
	-3.661715562876673e-02
	-3.661715562876673e-02
	-4.515590199367684e-02
	-1.920403910233736e-01
	-4.515593065478259e-02
	-3.661718511948323e-02
	-1.043885942988520e-05
	-1.043885942988520e-05
	2.062285142942835e-07
66		5.668039848526208e-04
	-4.075246945962560e-01
	-4.070791790707849e-01
	-1.023925139166677e-05
	-2.225790736219845e-01
	-5.289657139060104e-02
	-4.305776293656274e-02
	-4.305776293646130e-02
	-4.305776293646130e-02
	-5.289657046074567e-02
	-2.225790558474984e-01
	-5.289659837725826e-02
	-4.305779172260000e-02
	-1.027740662023962e-05
	-1.027740662023962e-05
	2.025070570322760e-07
67		5.768039848526209e-04
	-4.640604751387615e-01
	-4.636251387735982e-01
	-1.003493072466410e-05
	-2.518086917547329e-01
	-6.041491513476436e-02
	-4.934301565993746e-02
	-4.934301565992855e-02
	-4.934301565992855e-02
	-6.041491425399899e-02
	-2.518086746356717e-01
	-6.041494129780284e-02
	-4.934304360615104e-02
	-1.007249783344918e-05
	-1.007249783344918e-05
	1.978801659833216e-07
68		5.868039848526209e-04
	-5.187648209949588e-01
	-5.183413738152708e-01
	-9.789447708703050e-06
	-2.796441736703308e-01
	-6.767870725384093e-02
	-5.544365382407208e-02
	-5.544365382395812e-02
	-5.544365382395812e-02
	-6.767870642570302e-02
	-2.796441572471894e-01
	-6.767873248806519e-02
	-5.544368081456030e-02
	-9.826273846189008e-06
	-9.826273846189008e-06
	1.924759907672964e-07
69		5.968039848526209e-04
	-5.714218391037919e-01
	-5.710120768599229e-01
	-9.505651703102966e-06
	-3.060098259640568e-01
	-7.465698924002441e-02
	-6.133094607459873e-02
	-6.133094607457782e-02
	-6.133094607457782e-02
	-7.465698846441615e-02
	-3.060098102682428e-01
	-7.465701342474330e-02
	-6.133097198064137e-02
	-9.541580995846449e-06
	-9.541580995846449e-06
	1.862555653949112e-07
70		6.068039848526209e-04
	-6.218237162714886e-01
	-6.214289180576247e-01
	-9.193027538890410e-06
	-3.308373596311345e-01
	-8.131996453303396e-02
	-6.697661642290871e-02
	-6.697661642278348e-02
	-6.697661642278348e-02
	-8.131996381244935e-02
	-3.308373446525039e-01
	-8.131998756765751e-02
	-6.697664113398787e-02
	-9.227954063696488e-06
	-9.227954063696488e-06
	1.794537335744750e-07
71		6.168039848526210e-04
	-6.697715393152949e-01
	-6.693925786251107e-01
	-8.869748862271103e-06
	-3.540635234408687e-01
	-8.763885827105033e-02
	-7.235273528280640e-02
	-7.235273528277475e-02
	-7.235273528277475e-02
	-8.763885760439281e-02
	-3.540635091345468e-01
	-8.763888003690089e-02
	-7.235275867425463e-02
	-8.903636308584859e-06
	-8.903636308584859e-06
	1.722548591746149e-07
72		6.268039848526210e-04
	-7.150760800829338e-01
	-7.147124815572752e-01
	-8.571767298348090e-06
	-3.756251724185308e-01
	-9.358512186403195e-02
	-7.743105478962015e-02
	-7.743105478948498e-02
	-7.743105478948498e-02
	-9.358512125298432e-02
	-3.756251586675885e-01
	-9.358514225478717e-02
	-7.743107674864441e-02
	-8.604760669957613e-06
	-8.604760669957613e-06
	1.652720571175526e-07
73		6.368039848526210e-04
	-7.575585422496711e-01
	-7.572081529209528e-01
	-8.357001101256217e-06
	-3.954557030952550e-01
	-9.912997478975441e-02
	-8.218263623484071e-02
	-8.218263623479974e-02
	-8.218263623479974e-02
	-9.912997423253514e-02
	-3.954556897135145e-01
	-9.912999367548324e-02
	-8.218265663088155e-02
	-8.389513944593129e-06
	-8.389513944593129e-06
	1.592678766901322e-07
74		6.468039848526211e-04
	-7.970512669457264e-01
	-7.967089541836695e-01
	-8.312320399357888e-06
	-4.134815879140963e-01
	-1.042438441881006e-01
	-8.657742951569369e-02
	-8.657742951555011e-02
	-8.657742951555011e-02
	-1.042438436859101e-01
	-4.134815746195755e-01
	-1.042438614456249e-01
	-8.657744822606118e-02
	-8.345208894752450e-06
	-8.345208894752450e-06
	1.555967100258472e-07
75		6.568039848526211e-04