Title: kicad schematic
Date: Wed Jul 01 01:30:20  2026
Plotname: Transient Analysis
Flags: real
No. Variables: 29
No. Points: 84      
Variables:
	0	time	time
	1	v(net-_c1-pad1_)	voltage
	2	v(out1)	voltage
	3	v(x1.net-_q4-pad1_)	voltage
	4	v(vx)	voltage
	5	v(net-_r4-pad1_)	voltage
	6	v(out2)	voltage
	7	v(net-_c2-pad1_)	voltage
	8	v(net-_r1-pad2_)	voltage
	9	v(unconnected-_x1-pad14_)	voltage
	10	v(unconnected-_x1-pad13_)	voltage
	11	v(x1.net-_q1-pad3_)	voltage
	12	v(unconnected-_x1-pad3_)	voltage
	13	v(unconnected-_x1-pad4_)	voltage
	14	v(unconnected-_x1-pad1_)	voltage
	15	v(unconnected-_x1-pad2_)	voltage
	16	v(net-_c3-pad1_)	voltage
	17	v(net-_r3-pad1_)	voltage
	18	v(inp)	voltage
	19	v(q.x1.q2#collCX)	voltage
	20	v(q.x1.q3#collCX)	voltage
	21	v(q.x1.q1#collCX)	voltage
	22	v(q.x1.q5#collCX)	voltage
	23	v(q.x1.q6#collCX)	voltage
	24	v(q.x1.q4#collCX)	voltage
	25	i(v3)	current
	26	i(v4)	current
	27	i(v2)	current
	28	i(v1)	current
Values:
0		0.000000000000000e+00
	1.200000000000000e+01
	6.880205782050305e+00
	-7.076312320127301e-01
	-9.985736463135163e-02
	-8.090115208866648e-01
	6.880205782050115e+00
	-2.126558536309602e-02
	-2.126558536309698e-02
	4.172572408305895e-19
	1.307612227597924e-19
	-4.594090090334725e-19
	-2.197452282466042e-17
	-7.116291043026798e-17
	4.213791581033354e-20
	-3.015559673871395e-19
	-6.000000000000000e+00
	1.200000000000000e+01
	0.000000000000000e+00
	4.213791581033354e-20
	-4.594090090330131e-19
	4.172572408305895e-19
	6.875085987832354e+00
	6.875085987832165e+00
	-7.179133516056075e-01
	0.000000000000000e+00
	1.038197695822667e-02
	-5.119794217949884e-03
	-5.119794217949695e-03
1		7.500000000000001e-06
	1.200000000000000e+01
	6.886211949930715e+00
	-7.075708653473490e-01
	-9.981621704872298e-02
	-8.089695962217616e-01
	6.874075265906774e+00
	-2.117142925114186e-02
	-2.123828286180070e-02
	4.172110478335224e-19
	1.307157521952756e-19
	-4.594541363157322e-19
	-2.197450312952068e-17
	-7.116285279206189e-17
	4.209232436007987e-20
	-3.016011628037768e-19
	-6.000000000000000e+00
	1.200000000000000e+01
	9.424769240256488e-05
	4.209232436007987e-20
	-4.594541363152729e-19
	4.172110478335224e-19
	6.881098161880645e+00
	6.868949341172680e+00
	-7.178531099371389e-01
	-1.221072645392340e-07
	1.038206080755649e-02
	-5.125924734093226e-03
	-5.113788050069295e-03
2		1.500000000000000e-05
	1.200000000000000e+01
	6.892421602718274e+00
	-7.075115673652319e-01
	-9.977628446597375e-02
	-8.089288884122433e-01
	6.867744785828514e+00
	-2.107736341566078e-02
	-2.121319861681217e-02
	4.172099441066795e-19
	1.307160933309169e-19
	-4.594531086161871e-19
	-2.197437245711022e-17
	-7.116264623354456e-17
	4.209242372436090e-20
	-3.016002713729743e-19
	-6.000000000000000e+00
	1.200000000000000e+01
	1.884948615749370e-04
	4.209242372436090e-20
	-4.594531086157277e-19
	4.172099441066795e-19
	6.887314024320991e+00
	6.862612530614342e+00
	-7.177939333032236e-01
	-2.417782550591385e-07
	1.038214222317552e-02
	-5.132255214171486e-03
	-5.107578397281737e-03
3		3.000000000000000e-05
	1.200000000000000e+01
	6.904843924494682e+00
	-7.073930855823006e-01
	-9.969652349981571e-02
	-8.088475785978820e-01
	6.855081140031161e+00
	-2.088941463277654e-02
	-2.116323666243353e-02
	4.172071626701651e-19
	1.307169240427413e-19
	-4.594505614964410e-19
	-2.197404579861244e-17
	-7.116212985985718e-17
	4.209265000814779e-20
	-3.015980649250397e-19
	-6.000000000000000e+00
	1.200000000000000e+01
	3.769855373257604e-04
	4.209265000814779e-20
	-4.594505614959816e-19
	4.172071626701651e-19
	6.899748768419176e+00
	6.849936221171191e+00
	-7.176756939008874e-01
	-4.807455670462202e-07
	1.038230484280425e-02
	-5.144918859968839e-03
	-5.095156075505329e-03
4		6.000000000000001e-05
	1.200000000000000e+01
	6.929618875527453e+00
	-7.071563730552236e-01
	-9.953727925211867e-02
	-8.086852420157482e-01
	6.829824422798563e+00
	-2.051461963849287e-02
	-2.106363599763341e-02
	4.171823257838902e-19
	1.307007562893011e-19
	-4.594626098745750e-19
	-2.197327998203679e-17
	-7.116090872731074e-17
	4.207503167783995e-20
	-3.016109309053708e-19
	-6.000000000000000e+00
	1.200000000000000e+01
	7.539375886163273e-04
	4.207503167783995e-20
	-4.594626098741157e-19
	4.171823257838902e-19
	6.924548494402980e+00
	6.824654247221360e+00
	-7.174394652912225e-01
	-9.572924375509523e-07
	1.038262951596850e-02
	-5.170175577201438e-03
	-5.070381124472558e-03
5		1.200000000000000e-04
	1.200000000000000e+01
	6.978874038178735e+00
	-7.066840080799954e-01
	-9.921994889502692e-02
	-8.083617488845125e-01
	6.779609427399079e+00
	-1.976953620686225e-02
	-2.086569265799675e-02
	4.172748431343042e-19
	1.308135015483233e-19
	-4.593402527393408e-19
	-2.197134261791596e-17
	-7.115790896171252e-17
	4.218439184955170e-20
	-3.014904816215968e-19
	-6.000000000000000e+00
	1.200000000000000e+01
	1.507607306797382e-03
	4.218439184955170e-20
	-4.593402527388815e-19
	4.172748431343042e-19
	6.973852912216913e+00
	6.774389036826477e+00
	-7.169680646326144e-01
	-1.904803079260699e-06
	1.038327650223098e-02
	-5.220390572600921e-03
	-5.021125961821262e-03
6		2.400000000000000e-04
	1.200000000000000e+01
	7.076138882172534e+00
	-7.057442782476143e-01
	-9.859041286285446e-02
	-8.077199849115422e-01
	6.680441151624527e+00
	-1.829815806644125e-02
	-2.047518017108270e-02
	4.171949183802856e-19
	1.307798112797205e-19
	-4.593519731419070e-19
	-2.196720580561769e-17
	-7.115134381480486e-17
	4.214296403336219e-20
	-3.015065629030115e-19
	-6.000000000000000e+00
	1.200000000000000e+01
	3.013072221117310e-03
	4.214296403336219e-20
	-4.593519731414474e-19
	4.171949183802856e-19
	7.071215021054705e+00
	6.675121592776151e+00
	-7.160302478642123e-01
	-3.776325903891153e-06
	1.038456003017692e-02
	-5.319558848375473e-03
	-4.923861117827470e-03
7		4.800000000000001e-04
	1.200000000000000e+01
	7.265121158971885e+00
	-7.038906083339743e-01
	-9.735561431722790e-02
	-8.064611940358213e-01
	6.487728197901471e+00
	-1.543652849451669e-02
	-1.971768393972332e-02
	4.171035806717548e-19
	1.307924970230999e-19
	-4.592898561006074e-19
	-2.195780974885162e-17
	-7.113648405848766e-17
	4.213824034183720e-20
	-3.014542579120731e-19
	-6.000000000000000e+00
	1.200000000000000e+01
	6.009023564830285e-03
	4.213824034183720e-20
	-4.592898561001481e-19
	4.171035806717548e-19
	7.260386280130856e+00
	6.482215926099371e+00
	-7.141803303308714e-01
	-7.417155078476550e-06
	1.038707761192836e-02
	-5.512271802098529e-03
	-4.734878841028115e-03
8		9.600000000000001e-04
	1.200000000000000e+01
	7.616854022580459e+00
	-7.003327853390678e-01
	-9.501233826785717e-02
	-8.040723584777674e-01
	6.128925229091778e+00
	-1.008334719502553e-02
	-1.831191740658740e-02
	4.169987994450858e-19
	1.309188576803136e-19
	-4.590536530363514e-19
	-2.193683262770709e-17
	-7.110336562271597e-17
	4.222591127625264e-20
	-3.012398600870191e-19
	-6.000000000000000e+00
	1.200000000000000e+01
	1.188166326308140e-02
	4.222591127625264e-20
	-4.590536530358922e-19
	4.169987994450858e-19
	7.612470876603038e+00
	6.123054154320869e+00
	-7.106296282831337e-01
	-1.422694486985493e-05
	1.039185528304446e-02
	-5.871074770908222e-03
	-4.383145977419543e-03
9		1.920000000000000e-03
	1.200000000000000e+01
	8.190536355597033e+00
	-6.941710733972234e-01
	-9.104086091817931e-02
	-8.000235730228069e-01
	5.543284750124891e+00
	-1.182243240394506e-03
	-1.602800617001841e-02
	4.165562898868986e-19
	1.309847614769835e-19
	-4.587461190891208e-19
	-2.189090032185744e-17
	-7.103072349001458e-17
	4.220670100602630e-20
	-3.009802973652728e-19
	-6.000000000000000e+00
	1.200000000000000e+01
	2.269075796507027e-02
	4.220670100602630e-20
	-4.587461190886621e-19
	4.165562898868986e-19
	8.186726891952629e+00
	5.536828034875015e+00
	-7.044799853895549e-01
	-2.552286236676680e-05
	1.039995285395439e-02
	-6.456715249875109e-03
	-3.809463644402968e-03
10		2.920000000000001e-03
	1.200000000000000e+01
	8.573986292215942e+00
	-6.897555583240192e-01
	-8.826384045661632e-02
	-7.971924228508838e-01
	5.151487719492829e+00
	4.947130691352843e-03
	-1.450565063990479e-02
	4.160775100386280e-19
	1.310835554766128e-19
	-4.583727853485337e-19
	-2.183868919843201e-17
	-7.094816199328758e-17
	4.220878265763234e-20
	-3.006614748568565e-19
	-6.000000000000000e+00
	1.200000000000000e+01
	3.175961594591343e-02
	4.220878265763234e-20
	-4.583727853480756e-19
	4.160775100386280e-19
	8.570560278508157e+00
	5.144639207212322e+00
	-7.000729096371607e-01
	-3.326681861514949e-05
	1.040561515429823e-02
	-6.848512280507171e-03
	-3.426013707784059e-03
11		3.920000000000001e-03
	1.200000000000000e+01
	8.726645593603589e+00
	-6.879303240133486e-01
	-8.713096431869784e-02
	-7.960374448562852e-01
	4.995426942072088e+00
	7.424287253239816e-03
	-1.390082196784390e-02
	4.155964881701813e-19
	1.312280083376428e-19
	-4.579309687604750e-19
	-2.178210144875123e-17
	-7.085869698011358e-17
	4.224847482858389e-20
	-3.002787102670183e-19
	-6.000000000000000e+00
	1.200000000000000e+01
	3.771962143571459e-02
	4.224847482858389e-20
	-4.579309687600173e-19
	4.155964881701813e-19
	8.723372239197191e+00
	4.988422369014160e+00
	-6.982511181586192e-01
	-3.639015994313433e-05
	1.040792511028743e-02
	-7.004573057927913e-03
	-3.273354406396410e-03
12		4.920000000000001e-03
	1.200000000000000e+01
	8.649337905187243e+00
	-6.888874806653177e-01
	-8.771850910058770e-02
	-7.966364472610404e-01
	5.074498951852878e+00
	6.133988999255264e-03
	-1.420872758079933e-02
	4.150786790478199e-19
	1.313834933147084e-19
	-4.574553151053603e-19
	-2.172117585534176e-17
	-7.076236803720524e-17
	4.229115457071059e-20
	-2.998666489013432e-19
	-6.000000000000000e+00
	1.200000000000000e+01
	3.998736757133201e-02
	4.229115457071059e-20
	-4.574553151049031e-19
	4.150786790478199e-19
	8.645987243092430e+00
	5.067573450804730e+00
	-6.992064892609957e-01
	-3.477072784890495e-05
	1.040672710547792e-02
	-6.925501048147122e-03
	-3.350662094812757e-03
13		5.920000000000001e-03
	1.200000000000000e+01
	8.350780747299716e+00
	-6.923998001949344e-01
	-8.991195887521129e-02
	-7.988726570356484e-01
	5.379645094889910e+00
	1.314533089781817e-03
	-1.539464522225000e-02
	4.145241462501022e-19
	1.315499866951201e-19
	-4.569458684826869e-19
	-2.165591689328049e-17
	-7.065918050118586e-17
	4.233680224814122e-20
	-2.994253343488068e-19
	-6.000000000000000e+00
	1.200000000000000e+01
	3.834087156069504e-02
	4.233680224814122e-20
	-4.569458684822301e-19
	4.145241462501022e-19
	8.347131528047015e+00
	5.373024739984800e+00
	-7.027121429212851e-01
	-2.868847012782444e-05
	1.040225468592870e-02
	-6.620354905110090e-03
	-3.649219252700285e-03
14		6.920000000000001e-03
	1.200000000000000e+01
	7.853360916195217e+00
	-6.978774839366593e-01
	-9.341219828481077e-02
	-8.024410553286169e-01
	5.887594680581436e+00
	-6.460817369437482e-03
	-1.737329754098962e-02
	4.139329576954646e-19
	1.317274633374609e-19
	-4.564026757703998e-19
	-2.158632933433051e-17
	-7.054914006270450e-17
	4.238539707807056e-20
	-2.989548129406827e-19
	-6.000000000000000e+00
	1.200000000000000e+01
	3.294130390513710e-02
	4.238539707807056e-20
	-4.564026757699437e-19
	4.139329576954646e-19
	7.849214277111411e+00
	5.881482275262016e+00
	-7.081791896270090e-01
	-1.882718594540281e-05
	1.039511788934277e-02
	-6.112405319418564e-03
	-4.146639083804783e-03
15		7.920000000000002e-03
	1.200000000000000e+01
	7.205149287259240e+00
	-7.044924429672014e-01
	-9.775537412410527e-02
	-8.068686838077095e-01
	6.548905919243327e+00
	-1.633926782615651e-02
	-1.996322672410644e-02
	4.133051852084695e-19
	1.319158962495125e-19
	-4.558257870448102e-19
	-2.151241824701768e-17
	-7.043225276649030e-17
	4.243691671100769e-20
	-2.984551341699659e-19
	-6.000000000000000e+00
	1.200000000000000e+01
	2.431721190778420e-02
	4.243691671100769e-20
	-4.558257870443547e-19
	4.133051852084695e-19
	7.200354436546498e+00
	6.543454825162570e+00
	-7.147809502247469e-01
	-6.259983241919736e-06
	1.038626263238458e-02
	-5.451094080756673e-03
	-4.794850712740760e-03
16		8.920000000000003e-03
	1.200000000000000e+01
	6.483481259083224e+00
	-7.113423720273429e-01
	-1.023756209557717e-01
	-8.115786350130689e-01
	7.284558589707468e+00
	-2.727486449541951e-02
	-2.286875874159492e-02
	4.126409051672349e-19
	1.321152572480672e-19
	-4.552152549184939e-19
	-2.143418899560492e-17
	-7.030852501030343e-17
	4.249133789301657e-20
	-2.979263500287570e-19
	-6.000000000000000e+00
	1.200000000000000e+01
	1.331278178091945e-02
	4.249133789301657e-20
	-4.552152549180389e-19
	4.126409051672349e-19
	6.477964740342307e+00
	7.279843148297175e+00
	-7.216168391356392e-01
	7.636652393954607e-06
	1.037684272997386e-02
	-4.715441410292532e-03
	-5.516518740916776e-03
17		9.920000000000003e-03
	1.200000000000000e+01
	5.781260572889112e+00
	-7.176177168527098e-01
	-1.067096916377067e-01
	-8.159967365975205e-01
	7.999948107349260e+00
	-3.813304639201984e-02
	-2.572375099248540e-02
	4.119401979513697e-19
	1.323255164199111e-19
	-4.545711350768954e-19
	-2.135164724024537e-17
	-7.017796354506335e-17
	4.254863592927137e-20
	-2.973685155443209e-19
	-6.000000000000000e+00
	1.200000000000000e+01
	1.005203817733459e-03
	4.254863592927137e-20
	-4.545711350764411e-19
	4.119401979513697e-19
	5.775041833462000e+00
	7.995948055456608e+00
	-7.278790136871491e-01
	2.135126893775875e-05
	1.036800652680496e-02
	-4.000051892650741e-03
	-6.218739427110888e-03
18		1.092000000000000e-02
	1.200000000000000e+01
	5.182559348095510e+00
	-7.227316793714079e-01
	-1.103088601104530e-01
	-8.196656055118614e-01
	8.609622205752446e+00
	-4.779940713629210e-02
	-2.818309113340948e-02
	4.112031469292023e-19
	1.325466411226977e-19
	-4.538934872749467e-19
	-2.126501681882492e-17
	-7.004093819525254e-17
	4.260878368771130e-20
	-2.967816897751041e-19
	-6.000000000000000e+00
	1.200000000000000e+01
	-1.140077049879910e-02
	4.260878368771130e-20
	-4.538934872744930e-19
	4.112031469292023e-19
	5.175741907443605e+00
	8.606231827958197e+00
	-7.329820392995406e-01
	3.344100250744710e-05
	1.036066878897628e-02
	-3.390377794247555e-03
	-6.817440651904490e-03
19		1.192000000000001e-02
	1.200000000000000e+01
	4.743486450677966e+00
	-7.263686467493268e-01
	-1.129035705650872e-01
	-8.223105212248210e-01
	9.056625190734199e+00
	-5.528242078698885e-02
	-3.000309446778713e-02
	4.104298411493901e-19
	1.327785986909805e-19
	-4.531823726283644e-19
	-2.117430395151278e-17
	-6.989745637956636e-17
	4.267175430788020e-20
	-2.961659331014396e-19
	-6.000000000000000e+00
	1.200000000000000e+01
	-2.269075796507033e-02
	4.267175430788020e-20
	-4.531823726279114e-19
	4.104298411493901e-19
	4.736229937128643e+00
	9.053681815924932e+00
	-7.366111221355754e-01
	4.269847380404231e-05
	1.035537895755036e-02
	-2.943374809265802e-03
	-7.256513549322034e-03
20		1.292000000000001e-02
	1.200000000000000e+01
	4.490095252135397e+00
	-7.284291643559543e-01
	-1.143862200217194e-01
	-8.238218434714633e-01
	9.314554526697775e+00
	-5.980413528115809e-02
	-3.106014557083887e-02
	4.096203732639738e-19
	1.330213543743262e-19
	-4.524378556727559e-19
	-2.107951513853976e-17
	-6.974752585089708e-17
	4.273751914201144e-20
	-2.955213092840186e-19
	-6.000000000000000e+00
	1.200000000000000e+01
	-3.175961594591348e-02
	4.273751914201144e-20
	-4.524378556723037e-19
	4.096203732639738e-19
	4.482585347387531e+00
	9.311869081224472e+00
	-7.386671344482511e-01
	4.824439592943574e-05
	1.035235631305707e-02
	-2.685445473302225e-03
	-7.509904747864603e-03
21		1.392000000000001e-02
	1.200000000000000e+01
	4.433239492561182e+00
	-7.288791603140484e-01
	-1.147139183617080e-01
	-8.241558779618652e-01
	9.372415666068033e+00
	-6.087470836588613e-02
	-3.129904120590000e-02
	4.087387793028928e-19
	1.332856326011988e-19
	-4.516266713518946e-19
	-2.097658827141649e-17
	-6.958471439988197e-17
	4.280881182520348e-20
	-2.948190867614663e-19
	-6.000000000000000e+00
	1.200000000000000e+01
	-3.771962143571461e-02
	4.280881182520348e-20
	-4.516266713514433e-19
	4.087387793028928e-19
	4.425672732053743e+00
	9.369788081734100e+00
	-7.391161346390237e-01
	4.954425217202621e-05
	1.035168824407627e-02
	-2.627584333931968e-03
	-7.566760507438818e-03
22		1.492000000000001e-02
	1.200000000000000e+01
	4.571529230176107e+00
	-7.277586468261318e-01
	-1.139054858933873e-01
	-8.233318208722514e-01
	9.231650335599165e+00
	-5.834265944127311e-02
	-3.071944078201937e-02
	4.077852779259059e-19
	1.335713519013375e-19
	-4.507489713520016e-19
	-2.086553858105540e-17
	-6.940904019359280e-17
	4.288556550954002e-20
	-2.940594153463448e-19
	-6.000000000000000e+00
	1.200000000000000e+01
	-3.998736757133201e-02
	4.288556550954002e-20
	-4.507489713515511e-19
	4.077852779259059e-19
	4.564100759406283e+00
	9.228881985934763e+00
	-7.379980776977558e-01
	4.645164903258232e-05
	1.035333635825550e-02
	-2.768349664400836e-03
	-7.428470769823893e-03
23		1.592000000000001e-02
	1.200000000000000e+01
	4.905569436407550e+00
	-7.250304329234483e-01
	-1.119452479264583e-01
	-8.213336816739488e-01
	8.891611223253401e+00
	-5.241496959399095e-02
	-2.932531954472969e-02
	4.067959379467624e-19
	1.338677483248629e-19
	-4.498380940216644e-19
	-2.075043551187622e-17
	-6.922694419100766e-17
	4.296501405425184e-20
	-2.932710989946122e-19
	-6.000000000000000e+00
	1.200000000000000e+01
	-3.834087156069502e-02
	4.296501405425184e-20
	-4.498380940212148e-19
	4.067959379467624e-19
	4.898475005843957e+00
	8.888502834476654e+00
	-7.352758203114388e-01
	3.917222770032113e-05
	1.035733263665210e-02
	-3.108388776746599e-03
	-7.094430563592450e-03
24		1.692000000000001e-02
	1.200000000000000e+01
	5.434776939996405e+00
	-7.205993216557495e-01
	-1.087988268763186e-01
	-8.181263708407479e-01
	8.352794879835292e+00
	-4.364373370689083e-02
	-2.713766754440849e-02
	4.057708772328832e-19
	1.341747784305466e-19
	-4.488941205553006e-19
	-2.063128723410057e-17
	-6.903843613797246e-17
	4.304712195064840e-20
	-2.924542178792542e-19
	-6.000000000000000e+00
	1.200000000000000e+01
	-3.294130390513705e-02
	4.304712195064840e-20
	-4.488941205548520e-19
	4.057708772328832e-19
	5.428211716936401e+00
	8.349147674715127e+00
	-7.308542700864606e-01
	2.826113693052195e-05
	1.036374725831851e-02
	-3.647205120164709e-03
	-6.565223060003594e-03
25		1.792000000000001e-02
	1.200000000000000e+01
	6.119272521565879e+00
	-7.146433907843677e-01
	-1.046401203554818e-01
	-8.138870938549059e-01
	7.655640091543162e+00
	-3.287100705680764e-02
	-2.433886715047478e-02
	4.047102170791144e-19
	1.344923966076000e-19
	-4.479171356349036e-19
	-2.050810219542458e-17
	-6.884352611129554e-17
	4.313185183600271e-20
	-2.916088556174984e-19
	-6.000000000000000e+00
	1.200000000000000e+01
	-2.431721190778412e-02
	4.313185183600271e-20
	-4.479171356344560e-19
	4.047102170791144e-19
	6.113391794087444e+00
	7.651295731634704e+00
	-7.249109764755773e-01
	1.471155612408335e-05
	1.037222581229019e-02
	-4.344359908456837e-03
	-5.880727478434121e-03
26		1.892000000000001e-02
	1.200000000000000e+01
	6.888348268096676e+00
	-7.075505411514189e-01
	-9.980255237605122e-02
	-8.089556653422707e-01
	6.871897580747959e+00
	-2.113915366816820e-02
	-2.122973425950304e-02
	4.035786134458090e-19
	1.348310957872812e-19
	-4.468743050315707e-19
	-2.037686135837043e-17
	-6.863583328051927e-17
	4.322174801385221e-20
	-2.907067060259866e-19
	-6.000000000000000e+00
	1.200000000000000e+01
	-1.331278178091935e-02
	4.322174801385221e-20
	-4.468743050311241e-19
	4.035786134458090e-19
	6.883236616364772e+00
	6.866769478328706e+00
	-7.178328272676404e-01
	-1.630908885899671e-07
	1.038208866931546e-02
	-5.128102419252042e-03
	-5.111651731903324e-03
27		1.992000000000001e-02
	1.200000000000000e+01
	7.649465600894688e+00
	-7.000003878048929e-01
	-9.479420375795965e-02
	-8.038499826649925e-01
	6.095656727953494e+00
	-9.582899231538079e-03
	-1.818189391087639e-02
	4.024116736433646e-19
	1.351802846385888e-19
	-4.457986460831990e-19
	-2.024160203584839e-17
	-6.842176027838940e-17
	4.331418587903081e-20
	-2.897762560456722e-19
	-6.000000000000000e+00
	1.200000000000000e+01
	-1.005203817733376e-03
	4.331418587903081e-20
	-4.457986460827534e-19
	4.024116736433646e-19
	7.645115066495581e+00
	6.089752384681447e+00
	-7.102978936350944e-01
	-1.486337964252716e-05
	1.039230003467002e-02
	-5.904343272046506e-03
	-4.350534399105312e-03
28		2.092000000000001e-02
	1.200000000000000e+01
	8.308212936096094e+00
	-6.928377654478005e-01
	-9.019744788570097e-02
	-7.991637293384928e-01
	5.423072941827737e+00
	6.855944029152622e-04
	-1.556034478262593e-02
	4.012095353854056e-19
	1.355399117309413e-19
	-4.446902545360273e-19
	-2.010233377824268e-17
	-6.820131849926352e-17
	4.340912354006826e-20
	-2.888176001785139e-19
	-6.000000000000000e+00
	1.200000000000000e+01
	1.140077049879917e-02
	4.340912354006826e-20
	-4.446902545355829e-19
	4.012095353854056e-19
	8.304521149032190e+00
	5.416496014769564e+00
	-7.031492405405346e-01
	-2.788623399905683e-05
	1.040167254132301e-02
	-6.576927058172263e-03
	-3.691787063903907e-03
29		2.192000000000001e-02
	1.200000000000000e+01
	8.799998047699205e+00
	-6.869798319028598e-01
	-8.655643392193964e-02
	-7.954517056753242e-01
	4.920350711121652e+00
	8.683085131377791e-03
	-1.360831093396164e-02
	3.999723403572067e-19
	1.359099240965747e-19
	-4.435492289751989e-19
	-1.995906641021267e-17
	-6.797451966509721e-17
	4.350651790090090e-20
	-2.878308357183970e-19
	-6.000000000000000e+00
	1.200000000000000e+01
	2.269075796507037e-02
	4.350651790090090e-20
	-4.435492289747555e-19
	3.999723403572067e-19
	8.796798045746904e+00
	4.913271061832774e+00
	-6.973023720568898e-01
	-3.796370075711663e-05
	1.040909658864935e-02
	-7.079649288878348e-03
	-3.200001952300795e-03
30		2.292000000000001e-02
	1.200000000000000e+01
	9.093006253235718e+00
	-6.832289921773512e-01
	-8.428254492365363e-02
	-7.931334109936524e-01
	4.620519460401527e+00
	1.364498840872538e-02
	-1.244595483130861e-02
	3.987002342229986e-19
	1.362902672615129e-19
	-4.423756707894156e-19
	-1.981181002997339e-17
	-6.774137582515597e-17
	4.360632469640340e-20
	-2.868160627148124e-19
	-6.000000000000000e+00
	1.200000000000000e+01
	3.175961594591349e-02
	4.360632469640340e-20
	-4.423756707889735e-19
	3.987002342229986e-19
	9.090099259488953e+00
	4.613139979861927e+00
	-6.935584428097467e-01
	-4.417539331279409e-05
	1.041373317801270e-02
	-7.379480539598473e-03
	-2.906993746764282e-03
31		2.392000000000001e-02
	1.200000000000000e+01
	9.177748003946478e+00
	-6.821181536163913e-01
	-8.361463175630236e-02
	-7.924524433573004e-01
	4.533774841133112e+00
	1.509674502634747e-02
	-1.211050051294628e-02
	3.973933665222497e-19
	1.366808851661524e-19
	-4.411696842458625e-19
	-1.966057500866794e-17
	-6.750189935486630e-17
	4.370849841765531e-20
	-2.857733840467791e-19
	-6.000000000000000e+00
	1.200000000000000e+01
	3.771962143571464e-02
	4.370849841765531e-20
	-4.411696842454215e-19
	3.973933665222497e-19
	9.174925751950424e+00
	4.526308615974244e+00
	-6.924496340972278e-01
	-4.598958413078722e-05
	1.041509511328540e-02
	-7.466225158866888e-03
	-2.822251996053522e-03
32		2.492000000000002e-02
	1.200000000000000e+01
	9.049364123157204e+00
	-6.837799402896345e-01
	-8.461907839111442e-02
	-7.934764986539056e-01
	4.665172715096259e+00
	1.290269340329682e-02
	-1.262109792461748e-02
	3.960172868162548e-19
	1.370919361727839e-19
	-4.398990576439535e-19
	-1.950140426360618e-17
	-6.724978335156963e-17
	4.381531175434703e-20
	-2.846751077807328e-19
	-6.000000000000000e+00
	1.200000000000000e+01
	3.998736757133201e-02
	4.381531175434703e-20
	-4.398990576435138e-19
	3.960172868162548e-19
	9.046413487280361e+00
	4.657837887811354e+00
	-6.941083682132414e-01
	-4.324637104257355e-05
	1.041304700269219e-02
	-7.334827284903742e-03
	-2.950635876842796e-03
33		2.592000000000002e-02
	1.200000000000000e+01
	8.719134604355629e+00
	-6.880324056608851e-01
	-8.719245105946505e-02
	-7.961001163092674e-01
	5.003123466358553e+00
	7.283093966756357e-03
	-1.393279654008144e-02
	3.946067642060725e-19
	1.375131422319025e-19
	-4.385962252226633e-19
	-1.933827697959788e-17
	-6.699136109591669e-17
	4.392439516942464e-20
	-2.835491453612381e-19
	-6.000000000000000e+00
	1.200000000000000e+01
	3.834087156069499e-02
	4.392439516942464e-20
	-4.385962252222249e-19
	3.946067642060725e-19
	8.715853738959984e+00
	4.996126589824911e+00
	-6.983530129765086e-01
	-3.621569747549528e-05
	1.040779976738147e-02
	-6.996876533641447e-03
	-3.280865395644371e-03
34		2.692000000000002e-02
	1.200000000000000e+01
	8.190501414750448e+00
	-6.941930408134046e-01
	-9.105182309063742e-02
	-8.000347203466338e-01
	5.543351059967907e+00
	-1.202107745297303e-03
	-1.603213255202017e-02
	3.931619644401270e-19
	1.379444418304543e-19
	-4.372613018405771e-19
	-1.917120461334441e-17
	-6.672664626267433e-17
	4.403569910251571e-20
	-2.823956100554670e-19
	-6.000000000000000e+00
	1.200000000000000e+01
	3.294130390513699e-02
	4.403569910251571e-20
	-4.372613018401400e-19
	3.931619644401270e-19
	8.186691916165199e+00
	5.536894411027873e+00
	-7.045019195489162e-01
	-2.549698365441784e-05
	1.039993055930673e-02
	-6.456648940032094e-03
	-3.809498585249552e-03
35		2.792000000000002e-02
	1.200000000000000e+01
	7.510052138791463e+00
	-7.014374240464822e-01
	-9.573623379307533e-02
	-8.048102927837958e-01
	6.237908356766511e+00
	-1.170862836005615e-02
	-1.874347216869451e-02
	3.916830557091925e-19
	1.383857705429995e-19
	-4.358944065419084e-19
	-1.900032572795816e-17
	-6.645581584956846e-17
	4.414917144303819e-20
	-2.812146192628967e-19
	-6.000000000000000e+00
	1.200000000000000e+01
	2.431721190778407e-02
	4.414917144303819e-20
	-4.358944065414728e-19
	3.916830557091925e-19
	7.505562190930253e+00
	6.232146265123276e+00
	-7.117320672264098e-01
	-1.215158869370044e-05
	1.039037941443241e-02
	-5.762091643233489e-03
	-4.489947861208537e-03
36		2.892000000000002e-02
	1.200000000000000e+01
	6.752789292819645e+00
	-7.088400310021677e-01
	-1.006740297240832e-01
	-8.098440214651375e-01
	7.010094121444138e+00
	-2.319773543481392e-02
	-2.178166894276691e-02
	3.901362792395318e-19
	1.388470264631736e-19
	-4.344638114719849e-19
	-1.882185798022902e-17
	-6.617278315088213e-17
	4.426687531043154e-20
	-2.799789581057384e-19
	-6.000000000000000e+00
	1.200000000000000e+01
	1.331278178091929e-02
	4.426687531043154e-20
	-4.344638114715506e-19
	3.901362792395318e-19
	6.747542082112464e+00
	7.005104215565581e+00
	-7.191196689287941e-01
	2.458049735840659e-06
	1.038031195706973e-02
	-4.989905878555862e-03
	-5.247210707180355e-03
37		2.992000000000002e-02
	1.200000000000000e+01
	6.011267543836149e+00
	-7.156022996033191e-01
	-1.053067631067286e-01
	-8.145666191023764e-01
	7.765673055346198e+00
	-3.454111921717132e-02
	-2.478532557545706e-02
	3.885557516001840e-19
	1.393181774584729e-19
	-4.330014940963104e-19
	-1.863960844982634e-17
	-6.588366441151476e-17
	4.438664001954476e-20
	-2.787160875095379e-19
	-6.000000000000000e+00
	1.200000000000000e+01
	1.005203817733309e-03
	4.438664001954476e-20
	-4.330014940958776e-19
	3.885557516001840e-19
	6.005278811379984e+00
	7.761438728401544e+00
	-7.258678596012815e-01
	1.682583388073111e-05
	1.037086676179525e-02
	-4.234326944653801e-03
	-5.988732456163852e-03
38		3.092000000000002e-02
	1.200000000000000e+01
	5.375552813168562e+00
	-7.211076719467151e-01
	-1.091585547221891e-01
	-8.184930337427790e-01
	8.413117776255264e+00
	-4.463117823291531e-02
	-2.738727416421315e-02
	3.869416573556119e-19
	1.397991542613880e-19
	-4.315075833565634e-19
	-1.845358987274905e-17
	-6.558847484740176e-17
	4.450841010487048e-20
	-2.774261345496910e-19
	-6.000000000000000e+00
	1.200000000000000e+01
	-1.140077049879923e-02
	4.450841010487048e-20
	-4.315075833561321e-19
	3.869416573556119e-19
	5.368928365981730e+00
	8.409530894031519e+00
	-7.313615273237760e-01
	2.949247213503972e-05
	1.036301393251444e-02
	-3.586882223744736e-03
	-6.624447186831439e-03
39		3.192000000000002e-02
	1.200000000000000e+01
	4.904712311885277e+00
	-7.250451033417128e-01
	-1.119553548768058e-01
	-8.213439637270412e-01
	8.892499122709111e+00
	-5.248411824872474e-02
	-2.933252394080041e-02
	3.852941844346688e-19
	1.402898857327980e-19
	-4.299822113173224e-19
	-1.826381528388670e-17
	-6.528723002535821e-17
	4.463212861391867e-20
	-2.761092293663407e-19
	-6.000000000000000e+00
	1.200000000000000e+01
	-2.269075796507048e-02
	4.463212861391867e-20
	-4.299822113168926e-19
	3.852941844346688e-19
	4.897617024197161e+00
	8.889391621831820e+00
	-7.352904600586466e-01
	3.924847687419636e-05
	1.035731207254592e-02
	-3.107500877290888e-03
	-7.095287688114724e-03
40		3.292000000000002e-02
	1.200000000000000e+01
	4.626833741174684e+00
	-7.273207628309942e-01
	-1.135871835223409e-01
	-8.230073593375505e-01
	9.175369416393782e+00
	-5.732970868735674e-02
	-3.048843370835489e-02
	3.836135251264643e-19
	1.407902998890818e-19
	-4.284255121331758e-19
	-1.807029793331472e-17
	-6.497994577979227e-17
	4.475773814017808e-20
	-2.747655041302279e-19
	-6.000000000000000e+00
	1.200000000000000e+01
	-3.175961594591357e-02
	4.475773814017808e-20
	-4.284255121327476e-19
	3.836135251264643e-19
	4.619460574915858e+00
	9.172544785810175e+00
	-7.375611609280592e-01
	4.521687397002531e-05
	1.035398528132490e-02
	-2.824630583606219e-03
	-7.373166258825317e-03
41		3.392000000000002e-02
	1.200000000000000e+01
	4.550038044914608e+00
	-7.279423797957011e-01
	-1.140350511547163e-01
	-8.234638895490964e-01
	9.253536631850887e+00
	-5.868480530215565e-02
	-3.080835779360084e-02
	3.818998750008635e-19
	1.413003228544390e-19
	-4.268376230905176e-19
	-1.787305136819276e-17
	-6.466663829406682e-17
	4.488517978141871e-20
	-2.733950940831959e-19
	-6.000000000000000e+00
	1.200000000000000e+01
	-3.771962143571467e-02
	4.488517978141871e-20
	-4.268376230900909e-19
	3.818998750008635e-19
	4.542588082959521e+00
	9.250790168482737e+00
	-7.381814169647100e-01
	4.688130353001831e-05
	1.035307222090181e-02
	-2.746463368149113e-03
	-7.449961955085392e-03
42		3.492000000000002e-02
	1.200000000000000e+01
	4.679695577508995e+00
	-7.268777960327538e-01
	-1.132717960348731e-01
	-8.226858791552031e-01
	9.121544279358625e+00
	-5.640467771727950e-02
	-3.026780873908070e-02
	3.801206459658911e-19
	1.418294118511718e-19
	-4.251876364395598e-19