Title: kicad schematic
Date: Thu Jan 15 12:30:47  2026
Plotname: Transient Analysis
Flags: real
No. Variables: 39
No. Points: 413     
Variables:
	0	time	time
	1	v(x1.net-_q1-pad2_)	voltage
	2	v(x1.net-_q3-pad2_)	voltage
	3	v(vout)	voltage
	4	v(x1.net-_c2-pad2_)	voltage
	5	v(x1.net-_q5-pad2_)	voltage
	6	v(x1.net-_q10-pad1_)	voltage
	7	v(x1.net-_q10-pad2_)	voltage
	8	v(x1.net-_q12-pad2_)	voltage
	9	v(x1.net-_q11-pad2_)	voltage
	10	v(x1.net-_q17-pad2_)	voltage
	11	v(x1.net-_c2-pad1_)	voltage
	12	v(x1.net-_q16-pad1_)	voltage
	13	v(x1.net-_q15-pad1_)	voltage
	14	v(x1.net-_q16-pad2_)	voltage
	15	v(x1.net-_q15-pad3_)	voltage
	16	v(net-_r2-pad2_)	voltage
	17	v(x1.net-_q13-pad3_)	voltage
	18	v(x1.net-_c1-pad2_)	voltage
	19	v(x1.net-_q11-pad1_)	voltage
	20	v(net-_r1-pad1_)	voltage
	21	v(q.x1.q7#collCX)	voltage
	22	v(q.x1.q11#collCX)	voltage
	23	v(q.x1.q4#collCX)	voltage
	24	v(q.x1.q14#collCX)	voltage
	25	v(q.x1.q2#collCX)	voltage
	26	v(q.x1.q13#collCX)	voltage
	27	v(q.x1.q15#collCX)	voltage
	28	v(q.x1.q16#collCX)	voltage
	29	v(q.x1.q17#collCX)	voltage
	30	v(q.x1.q12#collCX)	voltage
	31	v(q.x1.q9#collCX)	voltage
	32	v(q.x1.q10#collCX)	voltage
	33	v(q.x1.q8#collCX)	voltage
	34	v(q.x1.q5#collCX)	voltage
	35	v(q.x1.q6#collCX)	voltage
	36	v(q.x1.q1#collCX)	voltage
	37	v(q.x1.q3#collCX)	voltage
	38	i(vv1)	current
Values:
0		0.000000000000000e+00
	4.337816609428321e-19
	4.971990168828917e-19
	1.883279410333668e-26
	-4.234809603059326e-20
	2.034200625317170e-19
	-8.234516924597991e-19
	-2.729949730582135e-18
	2.324754086798518e-25
	6.119279234269013e-19
	6.080884390110605e-27
	4.183306995685697e-26
	5.426141427358014e-26
	-8.603381870006287e-19
	5.607199380770544e-27
	-1.804279639847054e-27
	2.803599690385272e-27
	1.208772304209107e-26
	-4.234809603059326e-20
	1.020642478925137e-18
	0.000000000000000e+00
	2.034200625315705e-19
	1.020642478924787e-18
	-4.234809603058502e-20
	6.119279234268662e-19
	1.882999835370881e-26
	-2.729949730585270e-18
	-8.603381869992708e-19
	5.426216534743487e-26
	4.183380744787761e-26
	6.119279234335774e-19
	2.324756593840839e-25
	-8.234516924599683e-19
	2.034200625315858e-19
	-4.234809603082246e-20
	4.971990168814511e-19
	1.883356082290044e-26
	4.337816609420673e-19
	8.560360956062129e-30
1		1.000000000000001e-07
	1.336776404448927e-04
	5.701458980777688e-05
	4.066765091676952e-04
	2.020865439998394e-04
	1.012580154482595e-04
	5.230889717108931e-05
	5.194894453855282e-05
	1.034822590126077e-04
	3.297827524461860e-04
	1.540286262300720e-04
	2.175991403780655e-04
	1.831377439100798e-04
	1.352535178861928e-04
	1.440052647070505e-04
	1.018972229122887e-05
	7.200263235352525e-05
	1.596385932684111e-05
	2.492996128847292e-04
	2.354808137779170e-04
	6.283184893762575e-04
	1.012666538337651e-04
	2.354907661797090e-04
	2.020881822529099e-04
	3.297827684728157e-04
	4.066615628354540e-04
	5.194896498858791e-05
	1.352474560557089e-04
	1.831348857790318e-04
	2.175944966279958e-04
	3.297662239195228e-04
	1.034822508081926e-04
	5.230886256531654e-05
	1.012580083548808e-04
	2.020791762775046e-04
	5.701458066691987e-05
	4.066565584221174e-04
	1.336720347900482e-04
	-1.007463546402556e-07
2		1.322030974356030e-07
	1.842598012888299e-04
	7.876166400770161e-05
	5.592640866487288e-04
	2.789561236814424e-04
	1.399582883946846e-04
	7.128863874648431e-05
	7.148541272649923e-05
	1.428988958277509e-04
	4.539064785497068e-04
	2.122001387531537e-04
	3.008476889654443e-04
	2.534829543187532e-04
	1.862250793922229e-04
	1.983922276290309e-04
	1.251478469835183e-05
	9.919611381451546e-05
	2.016937668466923e-05
	3.382446824923219e-04
	3.251140869216976e-04
	8.306564638468512e-04
	1.399686545829278e-04
	3.251253898534819e-04
	2.789582131899945e-04
	4.539064861119305e-04
	5.592469091755067e-04
	7.148528202699507e-05
	1.862178198442839e-04
	2.534793348798077e-04
	3.008420006851038e-04
	4.538872648007525e-04
	1.428988896709412e-04
	7.128876028424399e-05
	1.399582841719186e-04
	2.789474636091233e-04
	7.876165871914821e-05
	5.592409440805325e-04
	1.842532567459764e-04
	-1.233601714536920e-07
3		1.966092923068089e-07
	2.940467917917339e-04
	1.264768578055863e-04
	8.872830360696248e-04
	4.467065745769576e-04
	2.250780942557950e-04
	1.118745288247441e-04
	1.144392194716109e-04
	2.303556451556515e-04
	7.219152879040782e-04
	3.384230458039799e-04
	4.841083313851931e-04
	4.092421013054777e-04
	2.967602198546199e-04
	3.164459252308198e-04
	1.563936189089779e-05
	1.582229626154099e-04
	2.654971611770456e-05
	5.219027734274568e-04
	5.213353340972153e-04
	1.235332302481270e-03
	2.250908670877969e-04
	5.213475558746909e-04
	4.467095638455815e-04
	7.219152866591555e-04
	8.872638556158114e-04
	1.144388064227456e-04
	2.967516078455732e-04
	4.092371689042950e-04
	4.841010819487366e-04
	7.218935457859218e-04
	2.303556419834749e-04
	1.118749377471355e-04
	2.250780930248726e-04
	4.466964876887384e-04
	1.264768565098368e-04
	8.872566733191581e-04
	2.940392507456539e-04
	-1.582042120052934e-07
4		3.254216820492206e-07
	5.369697806047989e-04
	2.356952282194386e-04
	1.594744352610374e-03
	8.228320095327218e-04
	4.213259213208480e-04
	2.047678122623709e-04
	2.175282860048832e-04
	4.433132029930840e-04
	1.308560330493515e-03
	6.163090457571252e-04
	9.075231633233532e-04
	7.760640314895319e-04
	5.407278085870851e-04
	5.766006138245875e-04
	1.828046546245866e-05
	2.883003069122938e-04
	3.271301228519812e-05
	9.007173790930193e-04
	9.683826082585584e-04
	2.044683306575236e-03
	4.213410847644939e-04
	9.683932572617452e-04
	8.228367629556059e-04
	1.308560329033580e-03
	1.594725954411111e-03
	2.175275394051816e-04
	5.407192824822230e-04
	7.760568676008553e-04
	9.075139086335948e-04
	1.308539690179117e-03
	4.433132006046399e-04
	2.047685558445005e-04
	4.213259205231490e-04
	8.228216929177346e-04
	2.356952274386897e-04
	1.594718037186869e-03
	5.369621543409721e-04
	-2.045177063476645e-07
5		5.830464615340442e-07
	1.047859436243103e-03
	4.790625293447273e-04
	3.025117356509412e-03
	1.628543842902354e-03
	8.636797496798820e-04
	4.276120363733854e-04
	4.758747246245747e-04
	9.835918057883551e-04
	2.528659068261275e-03
	1.180987316074687e-03
	1.864356366474948e-03
	1.632302807581374e-03
	1.041388046773592e-03
	1.105362676580999e-03
	2.275857526299692e-05
	5.526813382904995e-04
	4.070741874779410e-05
	1.698083729819055e-03
	1.959925430687725e-03
	3.663380766483649e-03
	8.636984753240026e-04
	1.959933501456030e-03
	1.628551464874468e-03
	2.528659067121850e-03
	3.025100340176467e-03
	4.758734556865695e-04
	1.041380815945519e-03
	1.632291403487328e-03
	1.864343386323046e-03
	2.528641165977228e-03
	9.835918034569447e-04
	4.276133028747504e-04
	8.636797490710645e-04
	1.628533554563917e-03
	4.790625287423043e-04
	3.025091554937840e-03
	1.047851890703110e-03
	-2.901197318064712e-07
6		1.020719725599267e-06
	1.966714541821559e-03
	9.474407178526754e-04
	5.474303438616697e-03
	3.108855393278584e-03
	1.725744877151396e-03
	9.011865100951720e-04
	1.048604226733310e-03
	2.194867303897120e-03
	4.700195450501781e-03
	2.127193335867839e-03
	3.732239676629628e-03
	3.363685447292647e-03
	1.894128286404878e-03
	1.990347173583730e-03
	2.895757535058766e-05
	9.951735867918651e-04
	5.225052606687031e-05
	3.172891615696853e-03
	3.860363432464216e-03
	6.413327217643100e-03
	1.725768034186490e-03
	3.860368429405011e-03
	3.108866453489917e-03
	4.700195449694996e-03
	5.474288134239795e-03
	1.048602183806010e-03
	1.894122860549656e-03
	3.363668607545911e-03
	3.732221903439230e-03
	4.700181318531224e-03
	2.194867302330126e-03
	9.011885511975760e-04
	1.725744876713160e-03
	3.108845050122649e-03
	9.474407174184274e-04
	5.474278211554557e-03
	1.966707052278508e-03
	-4.268289904665468e-07
7		1.896066253729711e-06
	3.927059553959115e-03
	2.015509199026404e-03
	1.042593701987572e-02
	6.336650968452429e-03
	3.714106453403858e-03
	2.110253170044078e-03
	2.563500622842430e-03
	5.427403599012712e-03
	9.297660955194777e-03
	3.984232606209490e-03
	8.041417040863983e-03
	7.489513435755261e-03
	3.606297761052573e-03
	3.724431014253487e-03
	3.749504696634647e-05
	1.862215507126743e-03
	6.786216798687122e-05
	6.391409891697872e-03
	8.180835902038464e-03
	1.191305382375242e-02
	3.714134735384378e-03
	8.180837580230612e-03
	6.336665960722842e-03
	9.297660954777735e-03
	1.042592358946742e-02
	2.563497560131244e-03
	3.606294791390897e-03
	7.489490395993142e-03
	8.041393932862909e-03
	9.297652331002926e-03
	5.427403597901462e-03
	2.110256232740537e-03
	3.714106453238190e-03
	6.336640640185774e-03
	2.015509198866761e-03
	1.042591242644858e-02
	3.927052158203109e-03
	-6.759621835803197e-07
8		2.939781230983128e-06
	6.379163195422958e-03
	3.412959684415539e-03
	1.638400415325740e-02
	1.043483326280398e-02
	6.334645939110273e-03
	3.855334072093312e-03
	4.796585659987807e-03
	1.021642409849320e-02
	1.504363986763275e-02
	6.166359368700301e-03
	1.371413713536574e-02
	1.304253974208508e-02
	5.663142982637450e-03
	5.759343573682679e-03
	4.331063272855831e-05
	2.879671786841339e-03
	7.863757396685907e-05
	1.048713473428590e-02
	1.382977671347564e-02
	1.847013990631736e-02
	6.334676739580528e-03
	1.382977699685909e-02
	1.043485005604285e-02
	1.504363986746083e-02
	1.638399160381254e-02
	4.796581892064057e-03
	5.663141589370239e-03
	1.304251364887343e-02
	1.371411150159729e-02
	1.504363511641643e-02
	1.021642409806540e-02
	3.855337842393722e-03
	6.334645939016682e-03
	1.043482293538494e-02
	3.412959684323028e-03
	1.638397984597631e-02
	6.379155842139490e-03
	-9.482435241181624e-07
9		4.358685602504813e-06
	9.783899782065857e-03
	5.390939431495326e-03
	2.452587356028690e-02
	1.616125571167877e-02
	1.005526155174075e-02
	6.503713555581055e-03
	8.219489563429225e-03
	1.757304779457433e-02
	2.306034357668556e-02
	9.113274921205845e-03
	2.175582637227076e-02
	2.100628465355448e-02
	8.481537981503535e-03
	8.505568264402585e-03
	4.716790976790792e-05
	4.252784132201292e-03
	8.566916125041875e-05
	1.621119411248253e-02
	2.183627820982988e-02
	2.738300608561715e-02
	1.005529347433845e-02
	2.183627807839779e-02
	1.616127325046052e-02
	2.306034357661225e-02
	2.452586131548324e-02
	8.219485359641810e-03
	8.481537624524344e-03
	2.100625725450007e-02
	2.175579977745584e-02
	2.306034154289507e-02
	1.757304779422296e-02
	6.503717765580651e-03
	1.005526155173497e-02
	1.616124543078569e-02
	5.390939431497225e-03
	2.452584935587157e-02
	9.783892466913519e-03
	-1.298696602422843e-06
10		6.080369265118773e-06
	1.394256519238782e-02
	7.823625608372306e-03
	3.442825769813671e-02
	2.317243517219298e-02
	1.463675297583590e-02
	9.913566815236016e-03
	1.264678666468214e-02
	2.709576462683911e-02
	3.291028388792770e-02
	1.268051015601362e-02
	3.165196750536936e-02
	3.086698513342225e-02
	1.192180754933469e-02
	1.182892156364899e-02
	4.907451105557148e-05
	5.914460781824496e-03
	8.922895891777851e-05
	2.322322446649156e-02
	3.170697455917664e-02
	3.819479403019507e-02
	1.463678515099914e-02
	3.170697443637902e-02
	2.317245282416771e-02
	3.291028388792236e-02
	3.442824551369401e-02
	1.264678224190498e-02
	1.192180764796618e-02
	3.086695744206331e-02
	3.165194076737074e-02
	3.291028314984319e-02
	2.709576462682534e-02
	9.913571248805519e-03
	1.463675297579522e-02
	2.317242490044780e-02
	7.823625608334916e-03
	3.442823354020288e-02
	1.394255789392231e-02
	-1.712061969117439e-06
11		9.031364796926223e-06
	2.106464453397920e-02
	1.199389998444370e-02
	5.140909198412482e-02
	3.519220219161488e-02
	2.249386535132907e-02
	1.591511380446187e-02
	2.045203664852181e-02
	4.388263599744312e-02
	4.986822836230093e-02
	1.878942210464058e-02
	4.864748518070507e-02
	4.785062462840386e-02
	1.783616217279715e-02
	1.751970673138904e-02
	5.003132860116564e-05
	8.759853365694520e-03
	9.093726249073587e-05
	3.524229605974579e-02
	4.868797588232228e-02
	5.671528920660911e-02
	2.249389749959002e-02
	4.868797584032810e-02
	3.519221985144999e-02
	4.986822836228783e-02
	5.140907975526296e-02
	2.045203215479675e-02
	1.783616250532513e-02
	4.785059701731185e-02
	4.864745859940539e-02
	4.986822825473591e-02
	4.388263599725493e-02
	1.591511831672637e-02
	2.249386535132280e-02
	3.519219195039282e-02
	1.199389998445020e-02
	5.140906787818121e-02
	2.106463726658142e-02
	-2.411907828401952e-06
12		1.297291593228158e-05
	3.053629765497661e-02
	1.753355844046229e-02
	7.406808876195976e-02
	5.119588457934658e-02
	3.293323709960858e-02
	2.400315412734574e-02
	3.097194137881512e-02
	6.649205611339194e-02
	7.252418959820263e-02
	2.693896441425445e-02
	7.131911105555937e-02
	7.053185398658939e-02
	2.573775170007473e-02
	2.511130775603700e-02
	5.033963317139445e-05
	1.255565387801850e-02
	9.154478238908119e-05
	5.124708396322503e-02
	7.135885644731878e-02
	8.142100354431117e-02
	3.293326907162467e-02
	7.135885640948925e-02
	5.119590220313003e-02
	7.252418959821479e-02
	7.406807653406206e-02
	3.097193688058785e-02
	2.573775205805602e-02
	7.053182659080641e-02
	7.131908468152623e-02
	7.252418953328466e-02
	6.649205611336013e-02
	2.400315865407153e-02
	3.293323709954510e-02
	5.119587433601946e-02
	1.753355844040900e-02
	7.406806477596858e-02
	3.053629041825144e-02
	-3.342233991977910e-06
13		1.981941980309704e-05
	4.685505760029651e-02
	2.705410360565640e-02
	1.133117027504446e-01
	7.882137352708117e-02
	5.087868685188594e-02
	3.805352151994469e-02
	4.923186044514818e-02
	1.056834056785770e-01
	1.117669483150996e-01
	4.105292135997992e-02
	1.105823768719562e-01
	1.098179566452245e-01
	3.942846662317138e-02
	3.825895935210240e-02
	5.062358531348301e-05
	1.912947967605120e-02
	9.201827423733301e-05
	7.887199576549733e-02
	1.106248880619954e-01
	1.242074810998458e-01
	5.087871849952093e-02
	1.106248880281390e-01
	7.882139113047934e-02
	1.117669483150873e-01
	1.133116904980387e-01
	4.923185599587469e-02
	3.942846703207596e-02
	1.098179296669950e-01
	1.105823508957095e-01
	1.117669482702043e-01
	1.056834056781818e-01
	3.805352601464292e-02
	5.087868685183751e-02
	7.882136332371517e-02
	2.705410360563074e-02
	1.133116789768957e-01
	4.685505043472463e-02
	-4.952626522455067e-06
14		2.981941980309705e-05
	7.033533672293561e-02
	4.070003440545880e-02
	1.702336533540889e-01
	1.186892540457082e-01
	7.660964079648555e-02
	5.851488798985818e-02
	7.578414111454793e-02
	1.625482743211826e-01
	1.686917864599375e-01
	6.152429234811731e-02
	1.675418061494058e-01
	1.668120611322388e-01
	5.929782001124076e-02
	5.732872855484331e-02
	5.096922440468341e-05
	2.866436427742166e-02
	9.268889023535483e-05
	1.187409497867862e-01
	1.675875810823478e-01
	1.862666725903553e-01
	7.660967185609525e-02
	1.675875810363709e-01
	1.186892715153844e-01
	1.686917864599496e-01
	1.702336411566229e-01
	7.578413672035907e-02
	5.929782046668002e-02
	1.668120348084185e-01
	1.675417807849932e-01
	1.686917864166335e-01
	1.625482743203303e-01
	5.851489245322950e-02
	7.660964079634817e-02
	1.186892439111708e-01
	4.070003440534278e-02
	1.702336299848836e-01
	7.033532967654307e-02
	-7.287736016484698e-06
15		3.981941980309706e-05
	9.331887735553168e-02
	5.399754824945084e-02
	2.264838337351880e-01
	1.578504795731678e-01
	1.016949114050160e-01
	7.883872210898006e-02
	1.021067546109850e-01
	2.187701607032828e-01
	2.249502753731056e-01
	8.175315095093670e-02
	2.238391098462033e-01
	2.231453271034412e-01
	7.894690429418090e-02
	7.617254182602830e-02
	5.107054539308133e-05
	3.808627091301415e-02
	9.283331801144191e-05
	1.579013226770349e-01
	2.238874727226364e-01
	2.475907546212988e-01
	1.016949417793200e-01
	2.238874726812946e-01
	1.578504968647508e-01
	2.249502753730931e-01
	2.264838216101097e-01
	1.021067503185791e-01
	7.894690482392948e-02
	2.231453015203822e-01
	2.238390851899357e-01
	2.249502753609735e-01
	2.187701606997694e-01
	7.883872649240579e-02
	1.016949114048636e-01
	1.578504695801804e-01
	5.399754824932519e-02
	2.264838108324663e-01
	9.331887046388752e-02
	-9.594054948232179e-06
16		4.981941980309706e-05
	1.157243465443511e-01
	6.690443435874495e-02
	2.818395998694972e-01
	1.961581578248072e-01
	1.260545653239118e-01
	9.894895269721166e-02
	1.280955795400675e-01
	2.741241676785067e-01
	2.803190809027979e-01
	1.016596579870961e-01
	2.792508149593175e-01
	2.785938818175617e-01
	9.829873682648681e-02
	9.471603063294354e-02
	5.105127766212159e-05
	4.735801531647177e-02
	9.283811129001450e-05
	1.962095996558729e-01
	2.793009821491044e-01
	3.079377090572083e-01
	1.260545949049017e-01
	2.793009820961628e-01
	1.961581748397941e-01
	2.803190809028102e-01
	2.818395879020382e-01
	1.280955753416160e-01
	9.829873740393535e-02
	2.785938570217521e-01
	2.792507910462799e-01
	2.803190808875095e-01
	2.741241676658228e-01
	9.894895700578425e-02
	1.260545653236426e-01
	1.961581479910800e-01
	6.690443435848276e-02
	2.818395775224480e-01
	1.157243398241121e-01
	-1.186277690350506e-05
17		5.981941980309707e-05
	1.374755508376007e-01
	7.938219315604431e-02
	3.360831024974807e-01
	2.334730236983480e-01
	1.496155163406012e-01
	1.187726561715886e-01
	1.536503499449262e-01
	3.283946067752091e-01
	3.345799976103920e-01
	1.211652981812208e-01
	3.335592761255889e-01
	3.329397632116333e-01
	1.172778457927936e-01
	1.128860543220388e-01
	5.078895440248648e-05
	5.644302716101939e-02
	9.232380279202990e-05
	2.335231615119140e-01
	3.336101961886322e-01
	3.670693740388262e-01
	1.496155450429789e-01
	3.336101961397074e-01
	2.334730403949928e-01
	3.345799976103795e-01
	3.360830907062170e-01
	1.536503458854357e-01
	1.172778464478152e-01
	3.329397392797671e-01
	3.335592530425582e-01
	3.345799976225778e-01
	3.283946067273674e-01
	1.187726603554487e-01
	1.496155163402763e-01
	2.334730140935145e-01
	7.938219315570193e-02
	3.360830807623845e-01
	1.374755443215459e-01
	-1.408466888242979e-05
18		6.981941980309707e-05
	1.584999762013030e-01
	9.139500115551756e-02
	3.889997028059781e-01
	2.696606120012438e-01
	1.723095587713357e-01
	1.382407775182271e-01
	1.786720216576690e-01
	3.813660697350799e-01
	3.875163454112345e-01
	1.401930532540674e-01
	3.865493879744021e-01
	3.859676585630035e-01
	1.358104887895032e-01
	1.306108691434670e-01
	5.040867306900619e-05
	6.530543457173348e-02
	9.166988150582278e-05
	2.697108476725649e-01
	3.865995071497901e-01
	4.247523838991583e-01
	1.723095864947228e-01
	3.865995070870041e-01
	2.696606282824079e-01
	3.875163454112471e-01
	3.889996912755646e-01
	1.786720177321431e-01
	1.358104894979972e-01
	3.859676355375501e-01
	3.865493657525868e-01
	3.875163454009048e-01
	3.813660695616264e-01
	1.382407815734425e-01
	1.723095587708351e-01
	2.696606026413305e-01
	9.139500115493161e-02
	3.889996817663147e-01
	1.584999699040019e-01
	-1.625121867871826e-05
19		7.981941980309709e-05
	1.787302170981850e-01
	1.029103352567459e-01
	4.403808459061944e-01
	3.045942305561876e-01
	1.940745421501824e-01
	1.572989567420551e-01
	2.030676859431197e-01
	4.328254549737047e-01
	4.389138272308886e-01
	1.586678572545694e-01
	4.380123472679603e-01
	4.374684301949672e-01
	1.538265124484451e-01
	1.478205530494987e-01
	4.984834257899385e-05
	7.391027652474934e-02
	9.061567394273042e-05
	3.046426906853908e-01
	4.380584995485074e-01
	4.807590901511462e-01
	1.940745688195743e-01
	4.380584994815485e-01
	3.045942463826643e-01
	4.389138272308764e-01
	4.403808346548584e-01
	2.030676822072211e-01
	1.538265132552879e-01
	4.374684081452641e-01
	4.380123259866128e-01
	4.389138271910171e-01
	4.328254543672157e-01
	1.572989605940797e-01
	1.940745421495443e-01
	3.045942215068013e-01
	1.029103352559237e-01
	4.403808256097539e-01
	1.787302110492782e-01
	-1.835374738406897e-05
20		8.981941980309709e-05
	1.981027110111906e-01
	1.138981993230077e-01
	4.900225046513544e-01
	3.381526080702749e-01
	2.148529442857235e-01
	1.759367839378359e-01
	2.267574640084364e-01
	4.825524802711308e-01
	4.885527845790790e-01
	1.765166651885254e-01
	4.877435563893148e-01
	4.872373603343908e-01
	1.712634681242969e-01
	1.644470717321815e-01
	4.939213975207532e-05
	8.222353586609077e-02
	8.982012833907842e-05
	3.382006501368340e-01
	4.877784477577917e-01
	5.348684599122434e-01
	2.148529698086225e-01
	4.877784476539089e-01
	3.381526233475017e-01
	4.885527845790926e-01
	4.900224937623481e-01
	2.267574604984323e-01
	1.712634690560047e-01
	4.872373392987672e-01
	4.877435360757820e-01
	4.885527843604302e-01
	4.825524782556537e-01
	1.759367875086931e-01
	2.148529442847982e-01
	3.381525993449377e-01
	1.138981993217194e-01
	4.900224851712704e-01
	1.981027052229042e-01
	-2.038452511858590e-05
21		9.981941980309708e-05
	2.165584913813573e-01
	1.243312717245556e-01
	5.377269929650509e-01
	3.702216050670830e-01
	2.345921244817096e-01
	1.942665251699357e-01
	2.496930133015257e-01
	5.303000291583446e-01
	5.361954734782076e-01
	1.936688521718410e-01
	5.355442880088780e-01
	5.350754328401988e-01
	1.880779656694399e-01
	1.804246673520065e-01
	4.942262218904154e-05
	9.021233367600327e-02
	8.983833564992729e-05
	3.702673894942615e-01
	5.355499363690520e-01
	5.868669482202226e-01
	2.345921487911623e-01
	5.355499362012269e-01
	3.702216197578358e-01
	5.361954734781975e-01
	5.377269824551130e-01
	2.496930101973512e-01
	1.880779669179203e-01
	5.350754128833505e-01
	5.355442687375361e-01
	5.361954728286311e-01
	5.303000228788670e-01
	1.942665281849391e-01
	2.345921244805005e-01
	3.702215967270842e-01
	1.243312717227255e-01
	5.377269743328347e-01
	2.165584858802217e-01
	-2.233634329780530e-05
22		1.098194198030971e-04
	2.340415173798420e-01
	1.341839628364737e-01
	5.833002770882428e-01
	4.006911959608355e-01
	2.532425896163194e-01
	2.126972042392758e-01
	2.718968961674296e-01
	5.757558965339469e-01
	5.815551674643246e-01
	2.100560891846162e-01
	5.812187283040354e-01
	5.807867910611539e-01
	2.042699812032310e-01
	1.956897564025147e-01
	5.122301488813789e-05
	9.784487820125734e-02
	9.313363771966319e-05
	4.007360393393257e-01
	5.811524736978877e-01
	6.365493407975820e-01
	2.532426126248329e-01
	5.811524733533679e-01
	4.006912099721347e-01
	5.815551674643438e-01
	5.833002670386808e-01
	2.718968938147843e-01
	2.042699831567739e-01
	5.807867722205003e-01
	5.812187101016001e-01
	5.815551657050614e-01
	5.757558787250554e-01
	2.126972061395068e-01
	2.532425896146365e-01
	4.006911880173953e-01
	1.341839628337707e-01
	5.833002593541676e-01
	2.340415121760862e-01
	-2.420411986788141e-05
23		1.198194198030971e-04
	2.504993838184442e-01
	1.434325300430050e-01
	6.265539900664133e-01
	4.294570737310575e-01
	2.707581828490444e-01
	2.321634661892093e-01
	2.935300196485262e-01
	6.185319586007687e-01
	6.242593305949952e-01
	2.256126137203650e-01
	6.245754273878894e-01
	6.241797491794788e-01
	2.199146569324443e-01
	2.101811878548923e-01
	5.657904883792832e-05
	1.050905939274462e-01
	1.028202271729494e-04
	4.294991738235310e-01
	6.243453760186712e-01
	6.837195639385445e-01
	2.707582044946459e-01
	6.243453753318220e-01
	4.294570870264290e-01
	6.242593305949952e-01
	6.265539804914488e-01
	2.935300187494253e-01
	2.199146604216425e-01
	6.241797315183046e-01
	6.245754103270399e-01
	6.242593265537333e-01
	6.185319150449700e-01
	2.321634658041138e-01
	2.707581828468489e-01
	4.294570662414278e-01
	1.434325300392403e-01
	6.265539732251428e-01
	2.504993789358487e-01
	-2.598435176005967e-05
24		1.298194198030971e-04
	2.658850250782824e-01
	1.520561452636201e-01
	6.673111777358265e-01
	4.564236835422007e-01
	2.870981846700330e-01
	2.540192870878510e-01
	3.149488749442755e-01
	6.583349213681987e-01
	6.638436006984380e-01
	2.402754197625687e-01
	6.654340648171992e-01
	6.650739089129257e-01
	2.351435629233736e-01
	2.238402948432404e-01
	6.648111594392996e-05
	1.119201474216202e-01
	1.208338104909564e-04
	4.564643356050545e-01
	6.648711117351733e-01
	7.281914583223980e-01
	2.870982048772681e-01
	6.648711104343483e-01
	4.564236960357656e-01
	6.638436006984711e-01
	6.673111687105707e-01
	3.149488760862934e-01
	2.351435688075794e-01
	6.650738924588974e-01
	6.654340489151898e-01
	6.638435926524268e-01
	6.583348353700004e-01
	2.540192828143145e-01
	2.870981846670937e-01
	4.564236765125402e-01
	1.520561452583439e-01
	6.673111617786308e-01
	2.658850205235334e-01
	-2.767285481207796e-05
25		1.398194198030971e-04
	2.801599850604815e-01
	1.600385184438718e-01
	7.054158112732809e-01
	4.815107498034161e-01
	3.022304339972860e-01
	2.793022754183285e-01
	3.366038820766950e-01
	6.951529474135674e-01
	6.997868856026577e-01
	2.539847448777421e-01
	7.036357317405399e-01
	7.033101092058391e-01
	2.500248908826644e-01
	2.366112266126305e-01
	7.906453219378644e-05
	1.183056133063152e-01
	1.436735009975704e-04
	4.815482222220848e-01
	7.024719113991054e-01
	7.697895136992854e-01
	3.022304527250128e-01
	7.024719091970080e-01
	4.815107614715535e-01
	6.997868856026743e-01
	7.054158028019987e-01
	3.366038851367158e-01
	2.500248994027607e-01
	7.033100940018941e-01
	7.036357170496561e-01
	6.997868715828945e-01
	6.951528096851561e-01
	2.793022650267655e-01
	3.022304339935293e-01
	4.815107432816623e-01
	1.600385184367842e-01
	7.054157961070948e-01
	2.801599808516994e-01
	-2.926077383000200e-05
26		1.498194198030971e-04
	2.932969646484707e-01
	1.673696093247981e-01
	7.407391608361826e-01
	5.046576868957527e-01
	3.161346367991278e-01
	3.073689586302885e-01
	3.587171878222045e-01
	7.294275218415878e-01
	7.316200673251426e-01
	2.666829780144023e-01
	7.390522043238202e-01
	7.387600131728351e-01
	2.643080052045289e-01
	2.484397291072394e-01
	8.799569739025847e-05
	1.242198645536197e-01
	1.599688920389838e-04
	5.046932842025784e-01
	7.369258303660594e-01
	8.083495615489780e-01
	3.161346540024886e-01
	7.369258270207827e-01
	5.046576976738465e-01
	7.316200673251883e-01
	7.407391529814512e-01
	3.587171904904335e-01
	2.643080143990175e-01
	7.387599992129956e-01
	7.390521908281416e-01
	7.316200458274413e-01
	7.294273467491633e-01
	3.073689385530726e-01
	3.161346367943013e-01
	5.046576808773779e-01
	1.673696093153660e-01
	7.407391463388562e-01
	2.932969607855552e-01
	-3.073200032399788e-05
27		1.598194198030971e-04
	3.052665970326728e-01
	1.740379115020270e-01
	7.731450441594613e-01
	5.258002310911170e-01
	3.287876529913636e-01
	3.357593012498848e-01
	3.807241297683901e-01
	7.611543748553465e-01
	7.588769012068078e-01
	2.783083592990063e-01
	7.715480186352577e-01
	7.712883063609619e-01
	2.772326383903733e-01
	2.592676215921826e-01
	9.135003180036330e-05
	1.296338107960913e-01
	1.660386989640470e-04
	5.258322353771834e-01
	7.680055480897755e-01
	8.437194229790230e-01
	3.287876686206733e-01
	7.680055433252795e-01
	5.258002409496958e-01
	7.588769012068407e-01
	7.731450369284799e-01
	3.807241279748373e-01
	2.772326440732154e-01
	7.712882936945851e-01
	7.715480063933545e-01
	7.588768703328003e-01
	7.611541769717283e-01
	3.357592612736977e-01
	3.287876529853951e-01
	5.258002256252162e-01
	1.740379114899192e-01
	7.731450301383291e-01
	3.052665935346683e-01
	-3.207926309980075e-05
28		1.685049259643590e-04
	3.146856087664840e-01
	1.792785467593920e-01
	7.988012589655578e-01
	5.424749735412731e-01
	3.387359589249563e-01
	3.584726252130929e-01
	3.987163123194258e-01
	7.860062546288088e-01
	7.784351784207075e-01
	2.874784749756580e-01
	7.972792693334161e-01
	7.970473130382374e-01
	2.863403466608939e-01
	2.678069244857876e-01
	9.287227518028411e-05
	1.339034622428938e-01
	1.688107704568322e-04
	5.425050272820010e-01
	7.920599651689537e-01
	8.717425717130814e-01
	3.387359731262305e-01
	7.920599589195022e-01
	5.424749825320460e-01
	7.784351784207687e-01
	7.988012523383674e-01
	3.987163008667339e-01
	2.863403435209130e-01
	7.970473015055736e-01
	7.972792581809424e-01
	7.784351378051959e-01
	7.860060383474007e-01
	3.584725507842089e-01
	3.387359589177990e-01
	5.424749685560073e-01
	1.792785467445346e-01
	7.988012451899936e-01
	3.146856055894117e-01
	-3.315514215796529e-05
29		1.763685451153572e-04
	3.224095959906285e-01
	1.835723411173416e-01
	8.199489166477556e-01
	5.561758608415974e-01
	3.468899692055039e-01
	3.758892528171329e-01
	4.130969741779315e-01
	8.058673510982287e-01
	7.925523314406572e-01
	2.949970501875846e-01
	8.184921019007094e-01
	8.182847840302330e-01
	2.917435012482734e-01
	2.748062249449187e-01
	9.531778771257852e-05
	1.374031124724593e-01
	1.731786501435192e-04
	5.562026514119370e-01
	8.113364733277688e-01
	8.948773196361260e-01
	3.468899820940944e-01
	8.113364655677158e-01
	5.561758690430364e-01
	7.925523314407031e-01
	8.199489105558337e-01
	4.130969473611300e-01
	2.917434836931427e-01
	8.182847735550137e-01
	8.184920917740232e-01
	7.925522808218988e-01
	8.058671133202724e-01
	3.758891271896783e-01
	3.468899691972837e-01
	5.561758563250264e-01
	1.835723410998794e-01
	8.199489029056468e-01
	3.224095931160333e-01
	-3.405836499471382e-05
30		1.863685451153572e-04
	3.311051018736035e-01
	1.884029657328049e-01
	8.438842569181820e-01
	5.716318909670509e-01
	3.560671192003130e-01
	3.923121801946902e-01
	4.275226843989720e-01
	8.270098183265163e-01
	8.050776326189144e-01
	3.034533619562460e-01
	8.425016885406051e-01
	8.423250408553441e-01
	2.929741719564358e-01
	2.826757166674981e-01
	1.043636001006383e-04
	1.413378583337491e-01