Title: kicad schematic
Date: Wed Jul 01 01:21:01  2026
Plotname: Transient Analysis
Flags: real
No. Variables: 15
No. Points: 84      
Variables:
	0	time	time
	1	v(net-_x1-pad1_)	voltage
	2	v(unconnected-_x1-pad3_)	voltage
	3	v(out)	voltage
	4	v(net-_c1-pad1_)	voltage
	5	v(unconnected-_x1-pad9_)	voltage
	6	v(unconnected-_x1-pad10_)	voltage
	7	v(unconnected-_x1-pad8_)	voltage
	8	v(inp)	voltage
	9	v(q.x1.q4#collCX)	voltage
	10	v(q.x1.q3#collCX)	voltage
	11	v(q.x1.q1#collCX)	voltage
	12	v(q.x1.q2#collCX)	voltage
	13	i(v1)	current
	14	i(v2)	current
Values:
0		0.000000000000000e+00
	9.000000000000000e+00
	2.907428846549079e-01
	1.301767321601455e-06
	5.051788142764454e-01
	9.000005859310246e+00
	8.999996473751313e+00
	9.000006236345243e+00
	0.000000000000000e+00
	8.999999999990999e+00
	8.999999999990997e+00
	8.999999999918780e+00
	8.999999998761451e+00
	0.000000000000000e+00
	-1.337774335752329e-09
1		7.500000000000001e-06
	9.000000000000000e+00
	2.929059884907392e-01
	9.029638245335951e-06
	5.098911205352531e-01
	9.000005859351131e+00
	8.999996473797424e+00
	9.000006236371529e+00
	4.712384620128243e-03
	8.999999999990999e+00
	8.999999999990997e+00
	9.000000001858666e+00
	8.999999999541869e+00
	-1.044817607431803e-08
	1.382529646321018e-09
2		1.500000000000000e-05
	9.000000000000000e+00
	2.950659475477346e-01
	9.180454730988609e-06
	5.146034004285316e-01
	9.000005859274902e+00
	8.999996473726421e+00
	9.000006236299626e+00
	9.424743078746847e-03
	8.999999999990999e+00
	8.999999999990999e+00
	9.000000001851758e+00
	8.999999999425164e+00
	-1.047537870335624e-08
	1.258916526580833e-09
3		3.000000000000000e-05
	9.000000000000000e+00
	2.993872926991770e-01
	9.501485326703118e-06
	5.240277767577616e-01
	9.000005859139860e+00
	8.999996473601831e+00
	9.000006236175093e+00
	1.884927686628802e-02
	8.999999999990997e+00
	8.999999999990999e+00
	9.000000001835794e+00
	8.999999999163784e+00
	-1.051906281523962e-08
	9.815721568884328e-10
4		6.000000000000001e-05
	9.000000000000000e+00
	3.080388589230269e-01
	1.026233559466967e-05
	5.428750631401593e-01
	9.000005859005070e+00
	8.999996473487945e+00
	9.000006236018585e+00
	3.769687943081636e-02
	8.999999999990999e+00
	8.999999999990999e+00
	9.000000001790966e+00
	8.999999998488443e+00
	-1.055974591795961e-08
	2.614033434156227e-10
5		1.200000000000000e-04
	9.000000000000000e+00
	3.254050226139560e-01
	1.280852685023430e-05
	5.805579121797189e-01
	9.000005859204443e+00
	8.999996473729116e+00
	9.000006236109105e+00
	7.538036533986910e-02
	8.999999999991001e+00
	8.999999999990999e+00
	9.000000001625947e+00
	8.999999996216758e+00
	-1.066923719511559e-08
	-2.175292834749598e-09
6		2.400000000000000e-04
	9.000000000000000e+00
	3.610005524026516e-01
	2.760264066240911e-05
	6.558298800557302e-01
	9.000005860210274e+00
	8.999996474818552e+00
	9.000006236933274e+00
	1.506536110558655e-01
	8.999999999990999e+00
	8.999999999991001e+00
	9.000000000512058e+00
	8.999999982495394e+00
	-1.062809588600611e-08
	-1.701054941349867e-08
7		4.800000000000001e-04
	9.000000000000000e+00
	4.474525910092103e-01
	5.323501724158465e-04
	8.056251668591765e-01
	9.000005861288489e+00
	8.999996476063981e+00
	9.000006237980301e+00
	3.004511782415142e-01
	8.999999999990999e+00
	8.999999999990999e+00
	8.999999985480423e+00
	8.999999490526493e+00
	-8.375089134357583e-09
	-5.240110887427818e-07
8		9.600000000000001e-04
	9.000000000000000e+00
	6.516045588403789e-01
	7.555219090409843e-02
	1.099251232794391e+00
	9.000005857561669e+00
	8.999996472671585e+00
	9.000006235510963e+00
	5.940831631540699e-01
	8.999999999990999e+00
	8.999999999991001e+00
	8.999999480758239e+00
	8.999924983320172e+00
	-1.628731645646891e-08
	-7.553593959030991e-05
9		1.470489487910772e-03
	9.000000000000000e+00
	9.179577840295946e-01
	3.055718067140538e-01
	1.396578818583423e+00
	9.000005852002660e+00
	8.999996467468291e+00
	9.000006230454836e+00
	8.914211708870499e-01
	8.999999999990999e+00
	8.999999999990999e+00
	8.999998282086736e+00
	8.999696170632411e+00
	-2.454386300622391e-08
	-3.055472988577890e-04
10		2.248315946040171e-03
	9.000000000000000e+00
	1.306689982448785e+00
	6.737106752985941e-01
	1.803221333823860e+00
	9.000005844734796e+00
	8.999996460742516e+00
	9.000006223938982e+00
	1.298091312397070e+00
	8.999999999990997e+00
	8.999999999990999e+00
	8.999996581648073e+00
	8.999329754149297e+00
	-4.649066994051598e-08
	-6.736642206348620e-04
11		3.073916148012750e-03
	9.000000000000000e+00
	1.644207216469359e+00
	1.000755367371874e+00
	2.149981775285570e+00
	9.000005843447749e+00
	8.999996460030903e+00
	9.000006222462593e+00
	1.644893747612428e+00
	8.999999999990999e+00
	8.999999999990999e+00
	8.999995143785533e+00
	8.999004156067455e+00
	-5.523835955225515e-08
	-1.000700165016966e-03
12		4.073916148012750e-03
	9.000000000000000e+00
	1.909858945335950e+00
	1.260393223228008e+00
	2.420976191056759e+00
	9.000005846834998e+00
	8.999996464115059e+00
	9.000006223571262e+00
	1.915950563398733e+00
	8.999999999990999e+00
	8.999999999990999e+00
	8.999994037430119e+00
	8.998745638890325e+00
	-6.956167067969504e-08
	-1.260323697561461e-03
13		5.073916148012750e-03
	9.000000000000000e+00
	1.991837873776942e+00
	1.340745190187273e+00
	2.504418020071796e+00
	9.000005842288781e+00
	8.999996460265697e+00
	9.000006218054740e+00
	1.999460788827043e+00
	8.999999999991001e+00
	8.999999999990999e+00
	8.999993694752773e+00
	8.998665627270197e+00
	-6.723115586557832e-08
	-1.340677995028017e-03
14		6.073916148012750e-03
	9.000000000000000e+00
	1.881561472364371e+00
	1.232692894051956e+00
	2.392140019087883e+00
	9.000005831329466e+00
	8.999996450003369e+00
	9.000006207178352e+00
	1.887249861182482e+00
	8.999999999991001e+00
	8.999999999990999e+00
	8.999994155379282e+00
	8.998773218624187e+00
	-6.691552283978608e-08
	-1.232626014529004e-03
15		7.073916148012750e-03
	9.000000000000000e+00
	1.590682255756220e+00
	9.487170470392677e-01
	2.095133445825845e+00
	9.000005816423853e+00
	8.999996435795007e+00
	9.000006195168300e+00
	1.590301767882404e+00
	8.999999999990999e+00
	8.999999999990999e+00
	8.999995370579260e+00
	8.999055962400101e+00
	-5.004440107973795e-08
	-9.486670386440466e-04
16		8.073916148012750e-03
	9.000000000000000e+00
	1.151658140997823e+00
	5.251678675941643e-01
	1.642472885805401e+00
	9.000005797099362e+00
	8.999996417168136e+00
	9.000006179985011e+00
	1.137683857258043e+00
	8.999999999990999e+00
	8.999999999990997e+00
	8.999997253152724e+00
	8.999477614216074e+00
	-3.525439108654702e-08
	-5.251326492068387e-04
17		9.073916148012751e-03
	9.000000000000000e+00
	6.348134791742072e-01
	6.333345589177390e-02
	1.078472143806332e+00
	9.000005775132223e+00
	8.999996395899077e+00
	9.000006161973740e+00
	5.737015239757316e-01
	8.999999999990999e+00
	8.999999999990999e+00
	8.999999551253040e+00
	8.999937116836110e+00
	-1.563042427692868e-09
	-6.333192885499273e-05
18		1.007391614801275e-02
	9.000000000000000e+00
	3.172426914147353e-01
	-7.550164477347639e-06
	4.583378568963735e-01
	9.000005767637553e+00
	8.999996389102794e+00
	9.000006156850494e+00
	-4.643871168688468e-02
	8.999999999990999e+00
	8.999999999990999e+00
	8.999999998030516e+00
	8.999999996041097e+00
	1.346054774326727e-08
	-5.946391823385966e-09
19		1.107391614801275e-02
	9.000000000000000e+00
	4.420421473018432e-02
	-2.279403845357249e-06
	-1.572472831936712e-01
	9.000005769729363e+00
	8.999996391892996e+00
	9.000006158065563e+00
	-6.620332026920579e-01
	8.999999999990999e+00
	8.999999999990999e+00
	8.999999998164585e+00
	8.999999998855534e+00
	5.241282514175261e-09
	-2.997886383582227e-09
20		1.200574384399857e-02
	9.000000000000000e+00
	-1.825922327332314e-01
	-8.107625555335314e-06
	-6.736952884370614e-01
	9.000005770944181e+00
	8.999996393758497e+00
	9.000006158937280e+00
	-1.178488301983465e+00
	8.999999999990999e+00
	8.999999999990999e+00
	8.999999998473873e+00
	8.999999999630939e+00
	9.984811423849327e-09
	-1.913193159452931e-09
21		1.300574384399857e-02
	9.000000000000000e+00
	-3.757200012890451e-01
	5.488873550670984e-07
	-1.115353950870713e+00
	9.000005772776312e+00
	8.999996396288816e+00
	9.000006162412037e+00
	-1.620152648907973e+00
	8.999999999990999e+00
	8.999999999990999e+00
	8.999999998880243e+00
	8.999999999168697e+00
	1.384170288803999e-09
	-1.969064911122587e-09
22		1.400574384399857e-02
	9.000000000000000e+00
	-4.990562775884757e-01
	-5.116455930479327e-06
	-1.398422969001235e+00
	9.000005774964345e+00
	8.999996399174925e+00
	9.000006164719593e+00
	-1.903225166290098e+00
	8.999999999990997e+00
	8.999999999990999e+00
	8.999999999428910e+00
	9.000000000055213e+00
	5.614332918273818e-09
	-5.338822717249059e-10
23		1.500574384399857e-02
	9.000000000000000e+00
	-5.409858749653267e-01
	3.601708774242800e-06
	-1.495193363122193e+00
	9.000005778714275e+00
	8.999996403622793e+00
	9.000006166033247e+00
	-1.999996743846278e+00
	8.999999999990999e+00
	8.999999999990999e+00
	8.999999999970621e+00
	8.999999999657133e+00
	-3.247462476013707e-09
	-3.902513867615198e-10
24		1.600574384399857e-02
	9.000000000000000e+00
	-4.975962469558043e-01
	-2.036172024165392e-06
	-1.396192504330501e+00
	9.000005775943137e+00
	8.999996401549517e+00
	9.000006162357195e+00
	-1.900994705318084e+00
	8.999999999990999e+00
	8.999999999990997e+00
	9.000000000565013e+00
	9.000000000565167e+00
	8.879894736191218e-10
	1.112175240791657e-09
25		1.700574384399857e-02
	9.000000000000000e+00
	-3.729286603492267e-01
	6.654259714572432e-06
	-1.111111354127691e+00
	9.000005759375931e+00
	8.999996385680355e+00
	9.000006150485266e+00
	-1.615910060024421e+00
	8.999999999990997e+00
	8.999999999990999e+00
	9.000000001060709e+00
	9.000000000145201e+00
	-7.878171179222931e-09
	1.187904885568969e-09
26		1.800574384399857e-02
	9.000000000000000e+00
	-1.787022583920207e-01
	9.490078921264153e-07
	-6.678558499487047e-01
	9.000005738818400e+00
	8.999996365821273e+00
	9.000006134715488e+00
	-1.172648879348151e+00
	8.999999999990997e+00
	8.999999999991001e+00
	9.000000001519103e+00
	9.000000000988711e+00
	-3.474823388445805e-09
	2.489812800376967e-09
27		1.900574384399857e-02
	9.000000000000000e+00
	6.667650625253774e-02
	9.584250741200438e-06
	-1.098152948176423e-01
	9.000005723190496e+00
	8.999996350892213e+00
	9.000006121629568e+00
	-6.146006560361171e-01
	8.999999999990999e+00
	8.999999999990999e+00
	9.000000001794351e+00
	9.000000000464937e+00
	-1.186153855491741e-08
	2.241282714976478e-09
28		2.000574384399858e-02
	9.000000000000000e+00
	3.366184182328316e-01
	1.136467811008296e-05
	5.083847441694749e-01
	9.000005710365249e+00
	8.999996338766104e+00
	9.000006111303646e+00
	3.608961663300273e-03
	8.999999999990999e+00
	8.999999999991001e+00
	9.000000001945837e+00
	8.999999993967370e+00
	-7.295886045701264e-09
	-4.104794726345062e-09
29		2.100574384399858e-02
	9.000000000000000e+00
	6.740526286682257e-01
	9.269740884626729e-02
	1.126226222610979e+00
	9.000005701713043e+00
	8.999996330813243e+00
	9.000006104330367e+00
	6.214653090500011e-01
	8.999999999990999e+00
	8.999999999990999e+00
	8.999999381434616e+00
	8.999907943580538e+00
	-2.244200434774885e-08
	-9.267500285048413e-05
30		2.200574384399858e-02
	9.000000000000000e+00
	1.190789623610140e+00
	5.625295568207805e-01
	1.683222341167855e+00
	9.000005700009515e+00
	8.999996329809122e+00
	9.000006103470920e+00
	1.178488301983468e+00
	8.999999999990999e+00
	8.999999999990999e+00
	8.999997081042888e+00
	8.999440420689043e+00
	-3.130674883309453e-08
	-5.624982860741312e-04
31		2.300574384399858e-02
	9.000000000000000e+00
	1.619596216701293e+00
	9.767105984204747e-01
	2.124838735875842e+00
	9.000005698758658e+00
	8.999996329257653e+00
	9.000006103172190e+00
	1.620152648907975e+00
	8.999999999990999e+00
	8.999999999990999e+00
	8.999995247809624e+00
	8.999028106171638e+00
	-6.459768420782191e-08
	-9.766460367437446e-04
32		2.400574384399858e-02
	9.000000000000000e+00
	1.896953434031445e+00
	1.247740222302740e+00
	2.407849532217124e+00
	9.000005697599201e+00
	8.999996328797552e+00
	9.000006102132502e+00
	1.903225166290100e+00
	8.999999999990999e+00
	8.999999999990999e+00
	8.999994089374599e+00
	8.998758229229495e+00
	-5.884439747885079e-08
	-1.247681413911295e-03
33		2.500574384399858e-02
	9.000000000000000e+00
	1.991975914434532e+00
	1.340880548355850e+00
	2.504552903761245e+00
	9.000005690864961e+00
	8.999996322762701e+00
	9.000006097059931e+00
	1.999996743846278e+00
	8.999999999990999e+00
	8.999999999990999e+00
	8.999993695636359e+00
	8.998665501364911e+00
	-7.756762663430061e-08
	-1.340803016734782e-03
34		2.600574384399858e-02
	9.000000000000000e+00
	1.894654270365864e+00
	1.245512071401593e+00
	2.405483484178131e+00
	9.000005680393416e+00
	8.999996312990698e+00
	9.000006089433782e+00
	1.900994705318083e+00
	8.999999999990999e+00
	8.999999999990999e+00
	8.999994099461087e+00
	8.998760445643992e+00
	-5.719448320246762e-08
	-1.245454912925936e-03
35		2.700574384399858e-02
	9.000000000000000e+00
	1.615314360754007e+00
	9.726928050975340e-01
	2.120339560910233e+00
	9.000005666546789e+00
	8.999996299843858e+00
	9.000006077713515e+00
	1.615910060024418e+00
	8.999999999990997e+00
	8.999999999990999e+00
	8.999995268224806e+00
	8.999032100313558e+00
	-6.136146526308783e-08
	-9.726314796409952e-04
36		2.800574384399858e-02
	9.000000000000000e+00
	1.184871896745377e+00
	5.568555657674019e-01
	1.677034429628696e+00
	9.000005646543775e+00
	8.999996280540994e+00
	9.000006061301464e+00
	1.172648879348149e+00
	8.999999999990997e+00
	8.999999999990999e+00
	8.999997107099100e+00
	8.999446063856878e+00
	-2.653974527210695e-08
	-5.568290620274752e-04
37		2.900574384399858e-02
	9.000000000000000e+00
	6.681270586653779e-01
	8.809246359655641e-02
	1.118965835282010e+00
	9.000005636853908e+00
	8.999996271551591e+00
	9.000006055349557e+00
	6.146006560361107e-01
	8.999999999990999e+00
	8.999999999990999e+00
	8.999999408595102e+00
	8.999912513125627e+00
	-1.420232402472507e-08
	-8.807829727608407e-05
38		3.000574384399858e-02
	9.000000000000000e+00
	3.266091165207280e-01
	-1.637740824015262e-05
	5.007605763417549e-01
	9.000005631247902e+00
	8.999996266646175e+00
	9.000006053213999e+00
	-3.608961663307133e-03
	8.999999999990997e+00
	8.999999999990999e+00
	8.999999998020494e+00
	8.999999995419067e+00
	2.291984234998809e-08
	-6.578444455840327e-09
39		3.100574384399859e-02
	9.000000000000000e+00
	5.028634802431253e-02
	7.860700203112333e-06
	-1.170863064274271e-01
	9.000005624510093e+00
	8.999996260609050e+00
	9.000006047579685e+00
	-6.214653090500060e-01
	8.999999999990999e+00
	8.999999999991001e+00
	8.999999998145592e+00
	8.999999997966313e+00
	-3.990607316166697e-09
	-3.906096779360269e-09
40		3.200574384399858e-02
	9.000000000000000e+00
	-1.956469909819276e-01
	-1.834220936839456e-05
	-6.741016219517207e-01
	9.000005622272214e+00
	8.999996259071906e+00
	9.000006045095773e+00
	-1.178488301983469e+00
	8.999999999990997e+00
	8.999999999991001e+00
	8.999999998473930e+00
	9.000000000504851e+00
	1.934542565593458e-08
	-1.039220265397489e-09
41		3.300574384399858e-02
	9.000000000000000e+00
	-3.896203990715560e-01
	1.078609067277507e-05
	-1.115760283402793e+00
	9.000005622665723e+00
	8.999996260166112e+00
	9.000006044948391e+00
	-1.620152648907976e+00
	8.999999999990999e+00
	8.999999999991001e+00
	8.999999998880202e+00
	8.999999998290184e+00
	-7.974478787378669e-09
	-2.847615476753163e-09
42		3.400574384399858e-02
	9.000000000000000e+00
	-5.134692086455772e-01
	-1.535144339577818e-05
	-1.398829301278297e+00
	9.000005626328578e+00
	8.999996264529546e+00
	9.000006047780044e+00
	-1.903225166290101e+00
	8.999999999990999e+00
	8.999999999990999e+00
	8.999999999428974e+00
	9.000000000930978e+00
	1.497349202917928e-08
	3.419469152277088e-10
43		3.500574384399859e-02
	9.000000000000000e+00
	-5.555522564583811e-01
	1.383687046710215e-05
	-1.495599695075846e+00
	9.000005625181508e+00
	8.999996264082961e+00
	9.000006047915811e+00
	-1.999996743846278e+00
	8.999999999990999e+00
	8.999999999990999e+00
	8.999999999970562e+00
	8.999999998780542e+00
	-1.260597477488815e-08
	-1.266901250573937e-09
44		3.600574384399859e-02
	9.000000000000000e+00
	-5.120026960349756e-01
	-1.227155978594911e-05
	-1.396598836569080e+00
	9.000005613188234e+00
	8.999996252790275e+00
	9.000006038448564e+00
	-1.900994705318082e+00
	8.999999999990997e+00
	8.999999999990999e+00
	9.000000000565066e+00
	9.000000001442562e+00
	1.024593191669906e-08
	1.989622688824966e-09
45		3.700574384399859e-02
	9.000000000000000e+00
	-3.868161384576669e-01
	1.688736843453432e-05
	-1.111517686578088e+00
	9.000005607968268e+00
	8.999996248271053e+00
	9.000006033702011e+00
	-1.615910060024416e+00
	8.999999999990997e+00
	8.999999999990999e+00
	9.000000001060638e+00
	8.999999999270532e+00
	-1.723653726345975e-08
	3.131646053589066e-10
46		3.800574384399859e-02
	9.000000000000000e+00
	-1.917292738775093e-01
	-9.287172755825407e-06
	-6.682621831567541e-01
	9.000005604417897e+00
	8.999996245421475e+00
	9.000006031162215e+00
	-1.172648879348146e+00
	8.999999999990997e+00
	8.999999999990999e+00
	9.000000001519142e+00
	9.000000001867997e+00
	5.882027390114938e-09
	3.369134304875843e-09
47		3.900574384399859e-02
	9.000000000000000e+00
	5.494529371057788e-02
	1.981394644135472e-05
	-1.102216283964808e-01
	9.000005602014493e+00
	8.999996243718870e+00
	9.000006029182751e+00
	-6.146006560361109e-01
	8.999999999991001e+00
	8.999999999990999e+00
	9.000000001794264e+00
	8.999999999592919e+00
	-2.121913091361529e-08
	1.369185653743443e-09
48		4.000574384399859e-02
	9.000000000000000e+00
	3.274612733667754e-01
	-1.049164767031703e-06
	5.079784279029766e-01
	9.000005600038778e+00
	8.999996242443949e+00
	9.000006026840325e+00
	3.608961663310441e-03
	8.999999999990997e+00
	8.999999999990999e+00
	9.000000001940940e+00
	8.999999996993889e+00
	2.096330985754472e-09
	-1.083176215388448e-09
49		4.100574384399859e-02
	9.000000000000000e+00
	6.736603434646838e-01
	9.239262759277832e-02
	1.125820124913574e+00
	9.000005597344570e+00
	8.999996240450528e+00
	9.000006025528748e+00
	6.214653090500091e-01
	8.999999999990997e+00
	8.999999999990999e+00
	8.999999382335151e+00
	8.999908256416340e+00
	-3.139708318767448e-08
	-9.236126651401833e-05
50		4.200574384399859e-02
	9.000000000000000e+00
	1.190409418981892e+00
	5.621656966225589e-01
	1.682816262471042e+00
	9.000005599425885e+00
	8.999996243232577e+00
	9.000006027056861e+00
	1.178488301983475e+00
	8.999999999990997e+00
	8.999999999990999e+00
	8.999997083525749e+00
	8.999440773073296e+00
	-2.231366880893829e-08
	-5.621434189606589e-04
51		4.300574384399859e-02
	9.000000000000000e+00
	1.619195097133340e+00
	9.763182302360537e-01
	2.124432673789897e+00
	9.000005602245597e+00
	8.999996246752897e+00
	9.000006028918913e+00
	1.620152648907982e+00
	8.999999999990997e+00
	8.999999999990999e+00
	8.999995248636463e+00
	8.999028506672845e+00
	-7.355754249541852e-08
	-9.762447086973935e-04
52		4.400574384399859e-02
	9.000000000000000e+00
	1.896558218311090e+00
	1.247353017336845e+00
	2.407443485753225e+00
	9.000005604171767e+00
	8.999996249379553e+00
	9.000006031156007e+00
	1.903225166290102e+00
	8.999999999990997e+00
	8.999999999990999e+00
	8.999994091851820e+00
	8.998758604966140e+00
	-4.985329508759573e-08
	-1.247303200045735e-03
53		4.500574384399859e-02
	9.000000000000000e+00
	1.991573361954072e+00
	1.340485898674111e+00
	2.504146872308680e+00
	9.000005591394244e+00
	8.999996237302588e+00
	9.000006022536578e+00
	1.999996743846278e+00
	8.999999999990997e+00
	8.999999999990999e+00
	8.999993696469398e+00
	8.998665904142635e+00
	-8.652870635283971e-08
	-1.340399405972192e-03
54		4.600574384399859e-02
	9.000000000000000e+00
	1.894259317626065e+00
	1.245125208077946e+00
	2.405077468235671e+00
	9.000005574016845e+00
	8.999996220626064e+00
	9.000006010858183e+00
	1.900994705318081e+00
	8.999999999991001e+00
	8.999999999990999e+00
	8.999994101937281e+00
	8.998760821039024e+00
	-4.820238327148813e-08
	-1.245077041692966e-03
55		4.700574384399860e-02
	9.000000000000000e+00
	1.614913111597013e+00
	9.723023055765850e-01
	2.119933560288992e+00
	9.000005567262303e+00
	8.999996214572645e+00
	9.000006006058522e+00
	1.615910060024412e+00
	8.999999999991001e+00
	8.999999999990997e+00
	8.999995269082332e+00
	8.999032498917011e+00
	-7.032292274975621e-08
	-9.722320186593691e-04
56		4.800574384399860e-02
	9.000000000000000e+00
	1.184488287241720e+00
	5.564887558796028e-01
	1.676628446543662e+00
	9.000005566667729e+00
	8.999996214679223e+00
	9.000006004370096e+00
	1.172648879348140e+00
	8.999999999991001e+00
	8.999999999990997e+00
	8.999997109595718e+00
	8.999446419173619e+00
	-1.754321536607747e-08
	-5.564712486645362e-04
57		4.900574384399860e-02
	9.000000000000000e+00
	6.677565907576469e-01
	8.780873844095095e-02
	1.118559870988022e+00
	9.000005562748136e+00
	8.999996211460772e+00
	9.000006001465170e+00
	6.146006560361009e-01
	8.999999999991001e+00
	8.999999999990997e+00
	8.999999409402578e+00
	8.999912805002252e+00
	-2.316127183489905e-08
	-8.778561317157596e-05
58		5.000574384399860e-02
	9.000000000000000e+00
	3.338524143584815e-01
	-2.502012377194744e-05
	5.003548022927167e-01
	9.000005553326666e+00
	8.999996202740547e+00
	9.000005995479082e+00
	-3.608961663313749e-03
	8.999999999990999e+00
	8.999999999990999e+00
	8.999999998024034e+00
	8.999999994718802e+00
	3.225928005344374e-08
	-7.275168911746732e-09
59		5.100574384399860e-02
	9.000000000000000e+00
	5.827084734957944e-02
	1.810556334829310e-05
	-1.174920948927701e-01
	9.000005540845871e+00
	8.999996190961211e+00
	9.000005985800760e+00
	-6.214653090500156e-01
	8.999999999990999e+00
	8.999999999990999e+00
	8.999999998145542e+00
	8.999999997089773e+00
	-1.335887762232311e-08
	-4.782689799753825e-09
60		5.200574384399860e-02
	9.000000000000000e+00
	-1.867677706594547e-01
	-2.858907206263926e-05
	-6.745074119252529e-01
	9.000005525374036e+00
	8.999996176191123e+00
	9.000005972272273e+00
	-1.178488301983478e+00
	8.999999999991001e+00
	8.999999999990997e+00
	8.999999998474026e+00
	9.000000001386365e+00
	2.871067958072973e-08
	-1.576108132894660e-10
61		5.300574384399860e-02
	9.000000000000000e+00
	-3.801241926122776e-01
	2.101470517235676e-05
	-1.116166065210330e+00
	9.000005516812283e+00
	8.999996168331359e+00
	9.000005965686533e+00
	-1.620152648907984e+00
	8.999999999990999e+00
	8.999999999990999e+00
	8.999999998878922e+00
	8.999999997411772e+00
	-1.732340072129260e-08
	-3.727311792545152e-09
62		5.400574384399860e-02
	9.000000000000000e+00
	-5.036349382876271e-01
	-2.559677027157842e-05
	-1.399235074901237e+00
	9.000005513201099e+00
	8.999996165422257e+00
	9.000005964014932e+00
	-1.903225166290103e+00
	8.999999999990999e+00
	8.999999999990999e+00
	8.999999999429058e+00
	9.000000001810927e+00
	2.433878314471102e-08
	1.221978962462344e-09
63		5.500574384399860e-02
	9.000000000000000e+00
	-5.455928228794753e-01
	2.408156318539862e-05
	-1.496005468726210e+00
	9.000005500678231e+00
	8.999996153601607e+00
	9.000005954765655e+00
	-1.999996743846278e+00
	8.999999999990999e+00
	8.999999999990999e+00
	8.999999999970482e+00
	8.999999997901273e+00
	-2.197132074020780e-08
	-2.146249400425404e-09
64		5.600574384399860e-02
	9.000000000000000e+00
	-5.021729392411189e-01
	-2.251558615881128e-05
	-1.397004610214927e+00
	9.000005490955402e+00
	8.999996144581212e+00
	9.000005948707017e+00
	-1.900994705318078e+00
	8.999999999990999e+00
	8.999999999991001e+00
	9.000000000565139e+00
	9.000000002321158e+00
	1.961128690691760e-08
	2.868295823077460e-09
65		5.700574384399860e-02
	9.000000000000000e+00
	-3.773352968174029e-01
	2.713183976039852e-05
	-1.111923459519871e+00
	9.000005487335017e+00
	8.999996141663365e+00
	9.000005945825921e+00
	-1.615910060024410e+00
	8.999999999991001e+00
	8.999999999991001e+00
	9.000000001060542e+00
	8.999999998390104e+00
	-2.660048413092794e-08
	-5.673523872928854e-10
66		5.800574384399861e-02
	9.000000000000000e+00
	-1.828720310343245e-01
	-1.952968846864559e-05
	-6.686679553738318e-01
	9.000005479535883e+00
	8.999996134566853e+00
	9.000005940325455e+00
	-1.172648879348135e+00
	8.999999999990999e+00
	8.999999999991001e+00
	9.000000001519206e+00
	9.000000002745058e+00
	1.524742365959647e-08
	4.246262008678059e-09
67		5.900574384399861e-02
	9.000000000000000e+00
	6.290663445377542e-02
	3.005862387946301e-05
	-1.106273991536680e-01
	9.000005473107045e+00
	8.999996128840751e+00
	9.000005937508295e+00
	-6.146006560360945e-01
	8.999999999990999e+00
	8.999999999990999e+00
	9.000000001794154e+00
	8.999999998710827e+00
	-3.058160741228064e-08
	4.869757930237029e-10
68		6.000574384399861e-02
	9.000000000000000e+00
	3.336293973606055e-01
	-9.906188817536047e-06
	5.075726470623363e-01
	9.000005471011637e+00
	8.999996127448124e+00
	9.000005936519957e+00
	3.608961663320609e-03
	8.999999999990999e+00
	8.999999999990999e+00
	9.000000001944851e+00
	8.999999996504696e+00
	1.143864059049461e-08
	-1.568457363987363e-09
69		6.100574384399861e-02
	9.000000000000000e+00
	6.733588671638112e-01
	9.215999412739419e-02
	1.125414201820221e+00
	9.000005465236793e+00
	8.999996122376096e+00
	9.000005930278064e+00
	6.214653090500222e-01
	8.999999999990999e+00
	8.999999999990999e+00
	8.999999384342534e+00
	8.999908496669233e+00
	-4.102389822334754e-08
	-9.211900623817826e-05
70		6.200574384399861e-02
	9.000000000000000e+00
	1.190010851483634e+00
	5.617846244079141e-01
	1.682410356046366e+00
	9.000005457292268e+00
	8.999996115134497e+00
	9.000005920965116e+00
	1.178488301983483e+00
	8.999999999990999e+00
	8.999999999990999e+00
	8.999997084581944e+00
	8.999441143429163e+00
	-1.265351640871229e-08
	-5.617720068986642e-04
71		6.300574384399861e-02
	9.000000000000000e+00
	1.618799944817538e+00
	9.759323470266658e-01
	2.124026783479108e+00
	9.000005449479954e+00
	8.999996108025245e+00
	9.000005912828421e+00
	1.620152648907988e+00
	8.999999999990999e+00
	8.999999999991001e+00
	8.999995250958275e+00
	8.999028899862168e+00
	-8.318546711617164e-08
	-9.758491975588868e-04
72		6.400574384399861e-02
	9.000000000000000e+00
	1.896156996240314e+00
	1.246959931984403e+00
	2.407037610648028e+00
	9.000005437845463e+00
	8.999996097093998e+00
	9.000005902106484e+00
	1.903225166290105e+00
	8.999999999990999e+00
	8.999999999990999e+00
	8.999994092844476e+00
	8.998758987400501e+00
	-4.019495927678335e-08
	-1.246919773027599e-03
73		6.500574384399861e-02
	9.000000000000000e+00
	1.991177023802573e+00
	1.340097339295496e+00
	2.503741012587860e+00
	9.000005426292415e+00
	8.999996086244421e+00
	9.000005892330588e+00
	1.999996743846278e+00
	8.999999999990999e+00
	8.999999999990999e+00
	8.999993698785303e+00
	8.998666300013673e+00
	-9.615627340458371e-08
	-1.340001219029219e-03
74		6.600574384399861e-02
	9.000000000000000e+00
	1.893858073166886e+00
	1.244732192523126e+00
	2.404671623550250e+00
	9.000005415516517e+00
	8.999996076172213e+00
	9.000005882941892e+00
	1.900994705318078e+00
	8.999999999991001e+00
	8.999999999990999e+00
	8.999994102932138e+00
	8.998761203402083e+00
	-3.854474541452324e-08
	-1.244693683776887e-03
75		6.700574384399861e-02
	9.000000000000000e+00
	1.614520034860484e+00
	9.719197578890656e-01
	2.119527731594719e+00
	9.000005410918368e+00
	8.999996072277884e+00
	9.000005877857276e+00
	1.615910060024406e+00
	8.999999999990999e+00
	8.999999999991001e+00
	8.999995271411398e+00
	8.999032888761294e+00
	-7.994857830536523e-08
	-9.718398453095745e-04
76		6.800574384399861e-02
	9.000000000000000e+00
	1.184092174556358e+00
	5.561100184388170e-01
	1.676222634250470e+00
	9.000005410649889e+00
	8.999996072713225e+00
	9.000005877101858e+00
	1.172648879348135e+00
	8.999999999991001e+00
	8.999999999990999e+00
	8.999997110643539e+00
	8.999446787204777e+00
	-7.884757650174906e-09
	-5.561021696820490e-04
77		6.900574384399862e-02
	9.000000000000000e+00
	6.674413506094552e-01
	8.756767114724774e-02
	1.118154080806452e+00
	9.000005403168149e+00
	8.999996065935337e+00
	9.000005870616326e+00
	6.146006560360947e-01
	8.999999999990999e+00
	8.999999999991001e+00
	8.999999411459012e+00
	8.999913053627346e+00
	-3.277550630594386e-08
	-8.753493164448400e-05
78		7.000574384399862e-02
	9.000000000000000e+00
	3.282807321421069e-01
	-3.653259753479321e-05
	4.999488981313539e-01
	9.000005399263930e+00
	8.999996062735049e+00
	9.000005866241766e+00
	-3.608961663327470e-03
	8.999999999990999e+00
	8.999999999991001e+00
	8.999999998021952e+00
	8.999999996847086e+00
	4.164555495486492e-08
	-5.148963921897121e-09
79		7.100574384399862e-02
	9.000000000000000e+00
	5.221420952931388e-02
	2.835219137564935e-05
	-1.178979890678611e-01
	9.000005400375946e+00
	8.999996064550965e+00
	9.000005864225253e+00
	-6.214653090500286e-01
	8.999999999990999e+00
	8.999999999991001e+00
	8.999999998145469e+00
	8.999999996209517e+00
	-2.272517998235554e-08
	-5.663014945866962e-09
80		7.200574384399862e-02
	9.000000000000000e+00
	-1.934854326759389e-01
	-3.883189562313017e-05
	-6.749133061956738e-01
	9.000005398060489e+00
	8.999996062939367e+00
	9.000005861287562e+00
	-1.178488301983489e+00
	8.999999999990999e+00
	8.999999999990999e+00
	8.999999998474149e+00
	9.000000002262958e+00
	3.807679127706097e-08
	7.191012230123306e-10
81		7.300574384399862e-02
	9.000000000000000e+00
	-3.872732136103216e-01
	3.125912643758901e-05
	-1.116571959126017e+00
	9.000005397214633e+00
	8.999996062797342e+00
	9.000005862221345e+00
	-1.620152648907992e+00
	8.999999999990999e+00
	8.999999999990999e+00
	8.999999998878836e+00
	8.999999996532843e+00
	-2.668880295800605e-08
	-4.606325987310811e-09
82		7.400574384399862e-02
	9.000000000000000e+00
	-5.110813647407004e-01
	-3.586619360833786e-05
	-1.399640954170608e+00
	9.000005393541029e+00
	8.999996059827566e+00
	9.000005861310715e+00
	-1.903225166290107e+00
	8.999999999990999e+00
	8.999999999990999e+00
	8.999999999426954e+00
	9.000000002687759e+00
	3.373347800704127e-08
	2.096708584531370e-09
83		7.500000000000001e-02
	9.000000000000000e+00
	-5.531480344336949e-01
	3.431560375785492e-05
	-1.496414589377308e+00
	9.000005385477923e+00
	8.999996052464329e+00
	9.000005856240403e+00
	-2.000000000000000e+00
	8.999999999990999e+00
	8.999999999990997e+00
	8.999999999967116e+00
	8.999999997021904e+00
	-3.132262405220257e-08