Title: kicad schematic
Date: Tue Jul 07 07:13:08  2026
Plotname: Transient Analysis
Flags: real
No. Variables: 62
No. Points: 108     
Variables:
	0	time	time
	1	v(x1.net-_q1-pad1_)	voltage
	2	v(x1.net-_q1-pad2_)	voltage
	3	v(vin)	voltage
	4	v(x1.net-_q14-pad1_)	voltage
	5	v(x1.net-_q3-pad3_)	voltage
	6	v(x1.net-_q11-pad3_)	voltage
	7	v(x1.net-_q11-pad1_)	voltage
	8	v(net-_qn1-pad2_)	voltage
	9	v(net-_c1-pad2_)	voltage
	10	v(x1.net-_q2-pad2_)	voltage
	11	v(x1.net-_c1-pad2_)	voltage
	12	v(x1.net-_q10-pad1_)	voltage
	13	v(x1.net-_q15-pad3_)	voltage
	14	v(x1.net-_q16-pad1_)	voltage
	15	v(x1.net-_c1-pad1_)	voltage
	16	v(x1.net-_q24-pad2_)	voltage
	17	v(net-_x1-pad4_)	voltage
	18	v(x1.net-_q23-pad3_)	voltage
	19	v(x1.net-_q28-pad2_)	voltage
	20	v(x1.net-_q28-pad3_)	voltage
	21	v(x1.net-_j1-pad3_)	voltage
	22	v(x1.net-_q30-pad2_)	voltage
	23	v(vout)	voltage
	24	v(net-_qn1-pad3_)	voltage
	25	v(net-_qn2-pad1_)	voltage
	26	v(net-_qn2-pad3_)	voltage
	27	v(net-_qn1-pad1_)	voltage
	28	v(qn1#collCX)	voltage
	29	v(qn2#collCX)	voltage
	30	v(q.x1.q30#collCX)	voltage
	31	v(q.x1.q29#collCX)	voltage
	32	v(q.x1.q31#collCX)	voltage
	33	v(q.x1.q28#collCX)	voltage
	34	v(q.x1.q27#collCX)	voltage
	35	v(q.x1.q25#collCX)	voltage
	36	v(q.x1.q23#collCX)	voltage
	37	v(q.x1.q24#collCX)	voltage
	38	v(q.x1.q21#collCX)	voltage
	39	v(q.x1.q20#collCX)	voltage
	40	v(q.x1.q17#collCX)	voltage
	41	v(q.x1.q15#collCX)	voltage
	42	v(q.x1.q5#collCX)	voltage
	43	v(q.x1.q9#collCX)	voltage
	44	v(q.x1.q22#collCX)	voltage
	45	v(q.x1.q8#collCX)	voltage
	46	v(q.x1.q6#collCX)	voltage
	47	v(q.x1.q16#collCX)	voltage
	48	v(q.x1.q10#collCX)	voltage
	49	v(q.x1.q7#collCX)	voltage
	50	v(q.x1.q26#collCX)	voltage
	51	v(q.x1.q18#collCX)	voltage
	52	v(q.x1.q13#collCX)	voltage
	53	v(q.x1.q2#collCX)	voltage
	54	v(q.x1.q12#collCX)	voltage
	55	v(q.x1.q3#collCX)	voltage
	56	v(q.x1.q11#collCX)	voltage
	57	v(q.x1.q4#collCX)	voltage
	58	v(q.x1.q19#collCX)	voltage
	59	v(q.x1.q14#collCX)	voltage
	60	v(q.x1.q1#collCX)	voltage
	61	i(v1)	current
Values:
0		0.000000000000000e+00
	1.153091996376583e+00
	4.366134032778839e+00
	5.000000000000000e+00
	1.089688315490804e+00
	1.094903051369257e+00
	1.693573259564841e+00
	1.095526789749350e+00
	4.961722637908669e-01
	4.974193605444820e-01
	5.187762304137745e-01
	4.724606293940186e-01
	1.106567108187392e+00
	5.525481329996761e-01
	5.540243636750892e-01
	4.183950234194622e+00
	3.111206427256630e+00
	3.110462214306765e+00
	3.649813356729719e+00
	6.135389120658920e-01
	5.995607889207131e-02
	1.294306742891545e+00
	6.809118548926896e-01
	1.242829104544638e+00
	2.111884598681317e-02
	4.392773649520761e+00
	2.374297091320232e-02
	1.089445468406714e-01
	1.089432480972373e-01
	4.392772357337931e+00
	6.097326218094907e-01
	1.290517739434630e+00
	4.999700458334535e+00
	4.366104310951782e+00
	3.110432445787626e+00
	4.999983855400859e+00
	4.999986513778841e+00
	4.183950234189347e+00
	4.183921722181207e+00
	5.539955888272746e-01
	5.525193587256639e-01
	1.089659553194753e+00
	5.187688644701089e-01
	4.724532680589050e-01
	4.183970718755009e+00
	4.724657776809358e-01
	5.187815022308179e-01
	5.540454899021754e-01
	1.106588136740781e+00
	1.693594184352393e+00
	2.991654984484974e-12
	4.612725853154216e-07
	2.072770576346829e-05
	2.090442216693599e-05
	5.154860474229249e-06
	5.280544991284554e-06
	1.095531910459836e+00
	1.094908297065005e+00
	4.366154485134358e+00
	1.089709347027879e+00
	1.153113016705708e+00
	-4.395214055456620e-03
1		1.000000000000000e-10
	1.153091996376579e+00
	4.366134032778806e+00
	5.000000000000000e+00
	1.089688315489205e+00
	1.094903051369249e+00
	1.693573259564827e+00
	1.095526789749339e+00
	4.961722637908609e-01
	4.974193605444797e-01
	5.187762304137695e-01
	4.724606293939674e-01
	1.106567108187200e+00
	5.525481329993195e-01
	5.540243636748555e-01
	4.183950234194599e+00
	3.111206427256620e+00
	3.110462214306755e+00
	3.649813356729705e+00
	6.135389120658858e-01
	5.995607889205865e-02
	1.294306742891541e+00
	6.809118548926881e-01
	1.242829104544638e+00
	2.111884598680508e-02
	4.392773649520761e+00
	2.374297091319849e-02
	1.089445468406605e-01
	1.089432480972266e-01
	4.392772357337932e+00
	6.097326218094852e-01
	1.290517739434627e+00
	4.999700458334535e+00
	4.366104310951751e+00
	3.110432445787615e+00
	4.999983855400857e+00
	4.999986513778840e+00
	4.183950234189326e+00
	4.183921722181182e+00
	5.539955888270517e-01
	5.525193587253253e-01
	1.089659553193230e+00
	5.187688644701042e-01
	4.724532680588569e-01
	4.183970718754987e+00
	4.724657776808868e-01
	5.187815022308125e-01
	5.540454899019494e-01
	1.106588136740596e+00
	1.693594184352378e+00
	2.991204506308520e-12
	4.612727468739086e-07
	2.072770575397426e-05
	2.090442216667789e-05
	5.154860473685840e-06
	5.280544990823416e-06
	1.095531910459824e+00
	1.094908297064997e+00
	4.366154485134328e+00
	1.089709347026337e+00
	1.153113016705703e+00
	-4.395214061758690e-03
2		2.000000000000001e-10
	1.153091996376570e+00
	4.366134032778769e+00
	5.000000000000000e+00
	1.089688315487835e+00
	1.094903051369237e+00
	1.693573259564809e+00
	1.095526789749322e+00
	4.961722637908549e-01
	4.974193605444749e-01
	5.187762304137622e-01
	4.724606293938889e-01
	1.106567108186986e+00
	5.525481329991485e-01
	5.540243636746079e-01
	4.183950234194564e+00
	3.111206427256602e+00
	3.110462214306739e+00
	3.649813356729685e+00
	6.135389120658827e-01
	5.995607889205055e-02
	1.294306742891540e+00
	6.809118548926867e-01
	1.242829104544638e+00
	2.111884598680025e-02
	4.392773649520763e+00
	2.374297091319366e-02
	1.089445468406543e-01
	1.089432480972203e-01
	4.392772357337932e+00
	6.097326218094820e-01
	1.290517739434625e+00
	4.999700458334535e+00
	4.366104310951713e+00
	3.110432445787598e+00
	4.999983855400857e+00
	4.999986513778839e+00
	4.183950234189291e+00
	4.183921722181147e+00
	5.539955888268033e-01
	5.525193587251426e-01
	1.089659553191864e+00
	5.187688644700967e-01
	4.724532680587802e-01
	4.183970718754953e+00
	4.724657776808101e-01
	5.187815022308051e-01
	5.540454899017025e-01
	1.106588136740383e+00
	1.693594184352360e+00
	2.990961645021883e-12
	4.612727761352242e-07
	2.072770575298200e-05
	2.090442216641508e-05
	5.154860473436041e-06
	5.280544990596194e-06
	1.095531910459808e+00
	1.094908297064985e+00
	4.366154485134290e+00
	1.089709347024963e+00
	1.153113016705694e+00
	-4.395214060440744e-03
3		4.000000000000002e-10
	1.153091996376548e+00
	4.366134032778691e+00
	5.000000000000000e+00
	1.089688315485365e+00
	1.094903051369203e+00
	1.693573259564762e+00
	1.095526789749275e+00
	4.961722637908335e-01
	4.974193605444605e-01
	5.187762304137428e-01
	4.724606293937085e-01
	1.106567108186575e+00
	5.525481329989284e-01
	5.540243636741446e-01
	4.183950234194506e+00
	3.111206427256565e+00
	3.110462214306708e+00
	3.649813356729639e+00
	6.135389120658761e-01
	5.995607889204133e-02
	1.294306742891535e+00
	6.809118548926846e-01
	1.242829104544638e+00
	2.111884598677988e-02
	4.392773649520763e+00
	2.374297091317307e-02
	1.089445468406320e-01
	1.089432480971979e-01
	4.392772357337933e+00
	6.097326218094754e-01
	1.290517739434621e+00
	4.999700458334535e+00
	4.366104310951634e+00
	3.110432445787565e+00
	4.999983855400855e+00
	4.999986513778839e+00
	4.183950234189232e+00
	4.183921722181089e+00
	5.539955888263350e-01
	5.525193587249104e-01
	1.089659553189387e+00
	5.187688644700775e-01
	4.724532680586015e-01
	4.183970718754892e+00
	4.724657776806309e-01
	5.187815022307853e-01
	5.540454899012381e-01
	1.106588136739971e+00
	1.693594184352313e+00
	2.990559189175457e-12
	4.612728045153003e-07
	2.072770575462651e-05
	2.090442216609329e-05
	5.154860472936443e-06
	5.280544990119823e-06
	1.095531910459761e+00
	1.094908297064950e+00
	4.366154485134213e+00
	1.089709347022485e+00
	1.153113016705672e+00
	-4.395214059338903e-03
4		8.000000000000003e-10
	1.153091996376492e+00
	4.366134032778557e+00
	5.000000000000000e+00
	1.089688315481168e+00
	1.094903051369126e+00
	1.693573259564666e+00
	1.095526789749165e+00
	4.961722637907814e-01
	4.974193605444138e-01
	5.187762304137016e-01
	4.724606293933316e-01
	1.106567108185864e+00
	5.525481329986206e-01
	5.540243636733678e-01
	4.183950234194423e+00
	3.111206427256506e+00
	3.110462214306657e+00
	3.649813356729571e+00
	6.135389120658743e-01
	5.995607889204240e-02
	1.294306742891534e+00
	6.809118548926835e-01
	1.242829104544638e+00
	2.111884598672736e-02
	4.392773649520763e+00
	2.374297091312061e-02
	1.089445468405765e-01
	1.089432480971424e-01
	4.392772357337932e+00
	6.097326218094735e-01
	1.290517739434619e+00
	4.999700458334534e+00
	4.366104310951501e+00
	3.110432445787513e+00
	4.999983855400856e+00
	4.999986513778840e+00
	4.183950234189149e+00
	4.183921722181006e+00
	5.539955888255540e-01
	5.525193587246041e-01
	1.089659553185178e+00
	5.187688644700361e-01
	4.724532680582240e-01
	4.183970718754809e+00
	4.724657776802537e-01
	5.187815022307446e-01
	5.540454899004599e-01
	1.106588136739259e+00
	1.693594184352216e+00
	2.991051850642634e-12
	4.612728164155033e-07
	2.072770575664573e-05
	2.090442216602650e-05
	5.154860473272232e-06
	5.280544990339590e-06
	1.095531910459651e+00
	1.094908297064874e+00
	4.366154485134078e+00
	1.089709347018285e+00
	1.153113016705615e+00
	-4.395214059050440e-03
5		1.600000000000001e-09
	1.153091996376392e+00
	4.366134032778324e+00
	5.000000000000000e+00
	1.089688315473325e+00
	1.094903051368991e+00
	1.693573259564499e+00
	1.095526789748966e+00
	4.961722637906972e-01
	4.974193605443163e-01
	5.187762304136251e-01
	4.724606293926638e-01
	1.106567108184578e+00
	5.525481329979303e-01
	5.540243636719500e-01
	4.183950234194298e+00
	3.111206427256421e+00
	3.110462214306575e+00
	3.649813356729477e+00
	6.135389120658803e-01
	5.995607889204764e-02
	1.294306742891537e+00
	6.809118548926846e-01
	1.242829104544638e+00
	2.111884598664682e-02
	4.392773649520765e+00
	2.374297091303579e-02
	1.089445468405022e-01
	1.089432480970678e-01
	4.392772357337935e+00
	6.097326218094798e-01
	1.290517739434622e+00
	4.999700458334534e+00
	4.366104310951266e+00
	3.110432445787432e+00
	4.999983855400857e+00
	4.999986513778840e+00
	4.183950234189024e+00
	4.183921722180883e+00
	5.539955888241385e-01
	5.525193587239131e-01
	1.089659553177336e+00
	5.187688644699594e-01
	4.724532680575556e-01
	4.183970718754684e+00
	4.724657776795855e-01
	5.187815022306679e-01
	5.540454898990426e-01
	1.106588136737974e+00
	1.693594184352049e+00
	2.990982461703595e-12
	4.612728196152008e-07
	2.072770575546092e-05
	2.090442216628585e-05
	5.154860473268407e-06
	5.280544990442319e-06
	1.095531910459452e+00
	1.094908297064739e+00
	4.366154485133844e+00
	1.089709347010440e+00
	1.153113016705516e+00
	-4.395214058877231e-03
6		3.200000000000001e-09
	1.153091996376257e+00
	4.366134032777868e+00
	5.000000000000000e+00
	1.089688315457839e+00
	1.094903051368743e+00
	1.693573259564194e+00
	1.095526789748603e+00
	4.961722637905314e-01
	4.974193605441445e-01
	5.187762304134971e-01
	4.724606293913998e-01
	1.106567108182102e+00
	5.525481329966635e-01
	5.540243636691737e-01
	4.183950234194080e+00
	3.111206427256303e+00
	3.110462214306465e+00
	3.649813356729321e+00
	6.135389120658805e-01
	5.995607889205076e-02
	1.294306742891536e+00
	6.809118548926844e-01
	1.242829104544637e+00
	2.111884598647906e-02
	4.392773649520765e+00
	2.374297091286931e-02
	1.089445468403415e-01
	1.089432480969075e-01
	4.392772357337934e+00
	6.097326218094801e-01
	1.290517739434621e+00
	4.999700458334535e+00
	4.366104310950812e+00
	3.110432445787326e+00
	4.999983855400857e+00
	4.999986513778840e+00
	4.183950234188806e+00
	4.183921722180666e+00
	5.539955888213643e-01
	5.525193587226509e-01
	1.089659553161850e+00
	5.187688644698315e-01
	4.724532680562916e-01
	4.183970718754467e+00
	4.724657776783215e-01
	5.187815022305399e-01
	5.540454898962661e-01
	1.106588136735497e+00
	1.693594184351745e+00
	2.991308589717079e-12
	4.612728176935608e-07
	2.072770575557801e-05
	2.090442216632054e-05
	5.154860473357630e-06
	5.280544990436030e-06
	1.095531910459089e+00
	1.094908297064490e+00
	4.366154485133389e+00
	1.089709346994955e+00
	1.153113016705382e+00
	-4.395214057450095e-03
7		6.400000000000003e-09
	1.153091996376081e+00
	4.366134032777020e+00
	5.000000000000000e+00
	1.089688315427284e+00
	1.094903051368337e+00
	1.693573259563698e+00
	1.095526789747981e+00
	4.961722637902626e-01
	4.974193605438495e-01
	5.187762304132906e-01
	4.724606293891030e-01
	1.106567108177534e+00
	5.525481329943942e-01
	5.540243636638343e-01
	4.183950234193974e+00
	3.111206427256344e+00
	3.110462214306506e+00
	3.649813356729287e+00
	6.135389120658844e-01
	5.995607889205436e-02
	1.294306742891538e+00
	6.809118548926834e-01
	1.242829104544637e+00
	2.111884598621794e-02
	4.392773649520756e+00
	2.374297091259880e-02
	1.089445468400526e-01
	1.089432480966185e-01
	4.392772357337927e+00
	6.097326218094842e-01
	1.290517739434623e+00
	4.999700458334534e+00
	4.366104310949964e+00
	3.110432445787374e+00
	4.999983855400857e+00
	4.999986513778840e+00
	4.183950234188700e+00
	4.183921722180561e+00
	5.539955888160318e-01
	5.525193587203859e-01
	1.089659553131299e+00
	5.187688644696252e-01
	4.724532680539942e-01
	4.183970718754360e+00
	4.724657776760242e-01
	5.187815022303336e-01
	5.540454898909276e-01
	1.106588136730930e+00
	1.693594184351250e+00
	2.991700637222650e-12
	4.612728197132127e-07
	2.072770575390053e-05
	2.090442216646084e-05
	5.154860473429716e-06
	5.280544990678620e-06
	1.095531910458466e+00
	1.094908297064085e+00
	4.366154485132542e+00
	1.089709346964399e+00
	1.153113016705206e+00
	-4.395214055384917e-03
8		1.280000000000001e-08
	1.153091996376094e+00
	4.366134032775469e+00
	5.000000000000000e+00
	1.089688315367931e+00
	1.094903051367891e+00
	1.693573259563138e+00
	1.095526789747168e+00
	4.961722637899903e-01
	4.974193605434712e-01
	5.187762304130420e-01
	4.724606293853646e-01
	1.106567108169779e+00
	5.525481329909946e-01
	5.540243636539386e-01
	4.183950234194856e+00
	3.111206427257358e+00
	3.110462214307519e+00
	3.649813356730150e+00
	6.135389120658888e-01
	5.995607889206191e-02
	1.294306742891545e+00
	6.809118548926876e-01
	1.242829104544637e+00
	2.111884598596364e-02
	4.392773649520768e+00
	2.374297091232613e-02
	1.089445468398233e-01
	1.089432480963891e-01
	4.392772357337939e+00
	6.097326218094881e-01
	1.290517739434631e+00
	4.999700458334535e+00
	4.366104310948412e+00
	3.110432445788397e+00
	4.999983855400859e+00
	4.999986513778841e+00
	4.183950234189582e+00
	4.183921722181448e+00
	5.539955888061463e-01
	5.525193587169983e-01
	1.089659553071949e+00
	5.187688644693764e-01
	4.724532680502549e-01
	4.183970718755240e+00
	4.724657776722854e-01
	5.187815022300852e-01
	5.540454898810321e-01
	1.106588136723174e+00
	1.693594184350691e+00
	2.992647796240533e-12
	4.612728183738164e-07
	2.072770575266064e-05
	2.090442216697854e-05
	5.154860473723776e-06
	5.280544991044268e-06
	1.095531910457653e+00
	1.094908297063639e+00
	4.366154485130992e+00
	1.089709346905047e+00
	1.153113016705220e+00
	-4.395214055306882e-03
9		2.280000000000001e-08
	1.153091996376905e+00
	4.366134032773499e+00
	5.000000000000000e+00
	1.089688315279287e+00
	1.094903051368072e+00
	1.693573259563343e+00
	1.095526789746904e+00
	4.961722637901882e-01
	4.974193605433655e-01
	5.187762304130471e-01
	4.724606293814159e-01
	1.106567108160851e+00
	5.525481329881965e-01
	5.540243636403704e-01
	4.183950234198201e+00
	3.111206427260854e+00
	3.110462214311033e+00
	3.649813356733314e+00
	6.135389120658858e-01
	5.995607889206038e-02
	1.294306742891539e+00
	6.809118548926850e-01
	1.242829104544638e+00
	2.111884598618646e-02
	4.392773649520842e+00
	2.374297091252719e-02
	1.089445468402567e-01
	1.089432480968223e-01
	4.392772357338013e+00
	6.097326218094854e-01
	1.290517739434624e+00
	4.999700458334535e+00
	4.366104310946443e+00
	3.110432445791927e+00
	4.999983855400861e+00
	4.999986513778842e+00
	4.183950234192928e+00
	4.183921722184796e+00
	5.539955887925943e-01
	5.525193587142135e-01
	1.089659552983312e+00
	5.187688644693818e-01
	4.724532680463051e-01
	4.183970718758586e+00
	4.724657776683358e-01
	5.187815022300908e-01
	5.540454898674654e-01
	1.106588136714246e+00
	1.693594184350897e+00
	2.993209846646749e-12
	4.612728203926008e-07
	2.072770574974543e-05
	2.090442216791226e-05
	5.154860474086053e-06
	5.280544991640768e-06
	1.095531910457390e+00
	1.094908297063821e+00
	4.366154485129023e+00
	1.089709346816403e+00
	1.153113016706033e+00
	-4.395214055456469e-03
10		3.280000000000002e-08
	1.153091996378285e+00
	4.366134032772040e+00
	5.000000000000000e+00
	1.089688315195206e+00
	1.094903051368990e+00
	1.693573259564451e+00
	1.095526789747502e+00
	4.961722637909226e-01
	4.974193605436698e-01
	5.187762304133717e-01
	4.724606293793306e-01
	1.106567108155109e+00
	5.525481329880042e-01
	5.540243636288378e-01
	4.183950234203579e+00
	3.111206427266408e+00
	3.110462214316606e+00
	3.649813356738397e+00
	6.135389120658905e-01
	5.995607889206764e-02
	1.294306742891544e+00
	6.809118548926887e-01
	1.242829104544637e+00
	2.111884598692459e-02
	4.392773649521001e+00
	2.374297091326827e-02
	1.089445468414591e-01
	1.089432480980244e-01
	4.392772357338172e+00
	6.097326218094896e-01
	1.290517739434630e+00
	4.999700458334536e+00
	4.366104310944984e+00
	3.110432445797513e+00
	4.999983855400862e+00
	4.999986513778843e+00
	4.183950234198305e+00
	4.183921722190176e+00
	5.539955887810736e-01
	5.525193587140350e-01
	1.089659552899235e+00
	5.187688644697062e-01
	4.724532680442187e-01
	4.183970718763964e+00
	4.724657776662501e-01
	5.187815022304159e-01
	5.540454898559328e-01
	1.106588136708504e+00
	1.693594184352006e+00
	2.994206878964567e-12
	4.612728189700598e-07
	2.072770574871046e-05
	2.090442216898123e-05
	5.154860474398178e-06
	5.280544991937840e-06
	1.095531910457988e+00
	1.094908297064738e+00
	4.366154485127566e+00
	1.089709346732322e+00
	1.153113016707414e+00
	-4.395214055469849e-03
11		4.280000000000003e-08
	1.153091996379959e+00
	4.366134032770879e+00
	5.000000000000000e+00
	1.089688315114965e+00
	1.094903051370317e+00
	1.693573259566104e+00
	1.095526789748658e+00
	4.961722637919104e-01
	4.974193605442289e-01
	5.187762304138861e-01
	4.724606293786475e-01
	1.106567108151853e+00
	5.525481329898323e-01
	5.540243636190042e-01
	4.183950234210406e+00
	3.111206427273611e+00
	3.110462214323844e+00
	3.649813356744953e+00
	6.135389120658897e-01
	5.995607889206581e-02
	1.294306742891545e+00
	6.809118548926887e-01
	1.242829104544637e+00
	2.111884598788144e-02
	4.392773649521169e+00
	2.374297091425903e-02
	1.089445468429442e-01
	1.089432480995097e-01
	4.392772357338340e+00
	6.097326218094885e-01
	1.290517739434631e+00
	4.999700458334535e+00
	4.366104310943823e+00
	3.110432445804762e+00
	4.999983855400863e+00
	4.999986513778844e+00
	4.183950234205133e+00
	4.183921722197002e+00
	5.539955887712520e-01
	5.525193587158729e-01
	1.089659552818999e+00
	5.187688644702205e-01
	4.724532680435344e-01
	4.183970718770792e+00
	4.724657776655663e-01
	5.187815022309303e-01
	5.540454898461002e-01
	1.106588136705249e+00
	1.693594184353659e+00
	2.994326141203540e-12
	4.612728204483288e-07
	2.072770574700652e-05
	2.090442216999707e-05
	5.154860474668272e-06
	5.280544992161375e-06
	1.095531910459144e+00
	1.094908297066065e+00
	4.366154485126405e+00
	1.089709346652080e+00
	1.153113016709089e+00
	-4.395214055411363e-03
12		5.280000000000004e-08
	1.153091996381679e+00
	4.366134032769877e+00
	5.000000000000000e+00
	1.089688315038100e+00
	1.094903051371933e+00
	1.693573259568153e+00
	1.095526789750193e+00
	4.961722637930716e-01
	4.974193605449541e-01
	5.187762304144932e-01
	4.724606293789194e-01
	1.106567108150419e+00
	5.525481329931903e-01
	5.540243636105933e-01
	4.183950234217514e+00
	3.111206427281863e+00
	3.110462214332173e+00
	3.649813356752135e+00
	6.135389120658852e-01
	5.995607889206255e-02
	1.294306742891539e+00
	6.809118548926877e-01
	1.242829104544637e+00
	2.111884598898273e-02
	4.392773649521348e+00
	2.374297091541699e-02
	1.089445468446179e-01
	1.089432481011831e-01
	4.392772357338519e+00
	6.097326218094842e-01
	1.290517739434625e+00
	4.999700458334535e+00
	4.366104310942822e+00
	3.110432445813101e+00
	4.999983855400863e+00
	4.999986513778845e+00
	4.183950234212241e+00
	4.183921722204106e+00
	5.539955887628496e-01
	5.525193587192414e-01
	1.089659552742138e+00
	5.187688644708273e-01
	4.724532680438058e-01
	4.183970718777900e+00
	4.724657776658381e-01
	5.187815022315376e-01
	5.540454898376891e-01
	1.106588136703815e+00
	1.693594184355710e+00
	2.994440199272086e-12
	4.612728187639259e-07
	2.072770574679142e-05
	2.090442217096092e-05
	5.154860474938667e-06
	5.280544992371006e-06
	1.095531910460678e+00
	1.094908297067681e+00
	4.366154485125405e+00
	1.089709346575215e+00
	1.153113016710809e+00
	-4.395214055480335e-03
13		6.280000000000005e-08
	1.153091996383408e+00
	4.366134032769058e+00
	5.000000000000000e+00
	1.089688314964243e+00
	1.094903051373712e+00
	1.693573259570421e+00
	1.095526789751950e+00
	4.961722637943158e-01
	4.974193605457659e-01
	5.187762304151556e-01
	4.724606293799003e-01
	1.106567108150372e+00
	5.525481329976518e-01
	5.540243636034186e-01
	4.183950234224599e+00
	3.111206427290927e+00
	3.110462214341300e+00
	3.649813356759671e+00
	6.135389120658912e-01
	5.995607889206784e-02
	1.294306742891544e+00
	6.809118548926881e-01
	1.242829104544637e+00
	2.111884599013175e-02
	4.392773649521538e+00
	2.374297091664662e-02
	1.089445468463977e-01
	1.089432481029631e-01
	4.392772357338709e+00
	6.097326218094903e-01
	1.290517739434630e+00
	4.999700458334535e+00
	4.366104310942002e+00
	3.110432445822237e+00
	4.999983855400863e+00
	4.999986513778844e+00
	4.183950234219327e+00
	4.183921722211185e+00
	5.539955887556837e-01
	5.525193587237098e-01
	1.089659552668286e+00
	5.187688644714897e-01
	4.724532680447858e-01
	4.183970718784986e+00
	4.724657776668187e-01
	5.187815022322002e-01
	5.540454898305152e-01
	1.106588136703768e+00
	1.693594184357979e+00
	2.994300554032270e-12
	4.612728199300666e-07
	2.072770574594607e-05
	2.090442217185675e-05
	5.154860475155916e-06
	5.280544992502032e-06
	1.095531910462436e+00
	1.094908297069460e+00
	4.366154485124587e+00
	1.089709346501357e+00
	1.153113016712539e+00
	-4.395214055450005e-03
14		7.280000000000006e-08
	1.153091996385137e+00
	4.366134032768374e+00
	5.000000000000000e+00
	1.089688314893059e+00
	1.094903051375615e+00
	1.693573259572844e+00
	1.095526789753851e+00
	4.961722637956188e-01
	4.974193605466246e-01
	5.187762304158420e-01
	4.724606293813950e-01
	1.106567108151360e+00
	5.525481330029669e-01
	5.540243635973081e-01
	4.183950234231403e+00
	3.111206427300556e+00
	3.110462214351020e+00
	3.649813356767297e+00
	6.135389120658881e-01
	5.995607889206592e-02
	1.294306742891540e+00
	6.809118548926872e-01
	1.242829104544637e+00
	2.111884599131242e-02
	4.392773649521739e+00
	2.374297091792188e-02
	1.089445468482559e-01
	1.089432481048211e-01
	4.392772357338909e+00
	6.097326218094873e-01
	1.290517739434625e+00
	4.999700458334535e+00
	4.366104310941318e+00
	3.110432445831964e+00
	4.999983855400867e+00
	4.999986513778845e+00
	4.183950234226130e+00
	4.183921722217984e+00
	5.539955887495793e-01
	5.525193587290332e-01
	1.089659552597104e+00
	5.187688644721756e-01
	4.724532680462804e-01
	4.183970718791791e+00
	4.724657776683135e-01
	5.187815022328868e-01
	5.540454898244046e-01
	1.106588136704756e+00
	1.693594184360402e+00
	2.994240272391480e-12
	4.612728181111684e-07
	2.072770574636749e-05
	2.090442217270448e-05
	5.154860475405903e-06
	5.280544992691171e-06
	1.095531910464337e+00
	1.094908297071364e+00
	4.366154485123904e+00
	1.089709346430173e+00
	1.153113016714269e+00
	-4.395214055391808e-03
15		8.280000000000007e-08
	1.153091996386788e+00
	4.366134032767744e+00
	5.000000000000000e+00
	1.089688314824323e+00
	1.094903051377550e+00
	1.693573259575336e+00
	1.095526789755791e+00
	4.961722637968757e-01
	4.974193605474805e-01
	5.187762304165203e-01
	4.724606293831655e-01
	1.106567108153066e+00
	5.525481330088056e-01
	5.540243635921251e-01
	4.183950234237481e+00
	3.111206427310400e+00
	3.110462214360961e+00
	3.649813356774622e+00
	6.135389120658952e-01
	5.995607889207133e-02
	1.294306742891551e+00
	6.809118548926910e-01
	1.242829104544637e+00
	2.111884599241481e-02
	4.392773649521895e+00
	2.374297091913496e-02
	1.089445468499285e-01
	1.089432481064941e-01
	4.392772357339066e+00
	6.097326218094941e-01
	1.290517739434636e+00
	4.999700458334535e+00
	4.366104310940687e+00
	3.110432445841911e+00
	4.999983855400866e+00
	4.999986513778844e+00
	4.183950234232210e+00
	4.183921722224057e+00
	5.539955887444030e-01
	5.525193587348769e-01
	1.089659552528373e+00
	5.187688644728540e-01
	4.724532680480504e-01
	4.183970718797870e+00
	4.724657776700836e-01
	5.187815022335651e-01
	5.540454898192221e-01
	1.106588136706463e+00
	1.693594184362895e+00
	2.993734166817363e-12
	4.612728190584223e-07
	2.072770574592785e-05
	2.090442217347470e-05
	5.154860475573154e-06
	5.280544992696727e-06
	1.095531910466277e+00
	1.094908297073298e+00
	4.366154485123273e+00
	1.089709346361437e+00
	1.153113016715920e+00
	-4.395214055502810e-03
16		9.280000000000008e-08
	1.153091996388298e+00
	4.366134032767196e+00
	5.000000000000000e+00
	1.089688314757831e+00
	1.094903051379417e+00
	1.693573259577805e+00
	1.095526789757717e+00
	4.961722637980082e-01
	4.974193605483086e-01
	5.187762304171587e-01
	4.724606293851287e-01
	1.106567108155293e+00
	5.525481330150313e-01
	5.540243635877458e-01
	4.183950234242976e+00
	3.111206427320383e+00
	3.110462214371032e+00
	3.649813356781642e+00
	6.135389120658891e-01
	5.995607889206632e-02
	1.294306742891543e+00
	6.809118548926900e-01
	1.242829104544637e+00
	2.111884599337616e-02
	4.392773649521973e+00
	2.374297092020744e-02
	1.089445468512331e-01
	1.089432481077988e-01
	4.392772357339143e+00
	6.097326218094877e-01
	1.290517739434628e+00
	4.999700458334535e+00
	4.366104310940139e+00
	3.110432445851989e+00
	4.999983855400868e+00
	4.999986513778844e+00
	4.183950234237703e+00
	4.183921722229544e+00
	5.539955887400276e-01
	5.525193587411089e-01
	1.089659552461883e+00
	5.187688644734920e-01
	4.724532680500131e-01
	4.183970718803366e+00
	4.724657776720471e-01
	5.187815022342037e-01
	5.540454898148426e-01
	1.106588136708689e+00
	1.693594184365364e+00
	2.993796183181630e-12
	4.612728171504704e-07
	2.072770574681245e-05
	2.090442217413514e-05
	5.154860475795813e-06
	5.280544992771862e-06
	1.095531910468203e+00
	1.094908297075166e+00
	4.366154485122726e+00
	1.089709346294944e+00
	1.153113016717431e+00
	-4.395214055432392e-03
17		1.028000000000001e-07
	1.153091996389683e+00
	4.366134032766694e+00
	5.000000000000000e+00
	1.089688314693451e+00
	1.094903051381250e+00
	1.693573259580248e+00
	1.095526789759595e+00
	4.961722637990976e-01
	4.974193605490926e-01
	5.187762304177603e-01
	4.724606293871208e-01
	1.106567108157833e+00
	5.525481330213925e-01
	5.540243635840905e-01
	4.183950234247429e+00
	3.111206427330280e+00
	3.110462214381054e+00
	3.649813356788031e+00
	6.135389120658894e-01
	5.995607889206497e-02
	1.294306742891542e+00
	6.809118548926887e-01
	1.242829104544637e+00
	2.111884599427916e-02
	4.392773649522054e+00
	2.374297092121991e-02
	1.089445468525053e-01
	1.089432481090709e-01
	4.392772357339225e+00
	6.097326218094884e-01
	1.290517739434628e+00
	4.999700458334535e+00
	4.366104310939638e+00
	3.110432445862016e+00
	4.999983855400870e+00
	4.999986513778846e+00
	4.183950234242158e+00
	4.183921722233992e+00
	5.539955887363772e-01
	5.525193587474736e-01
	1.089659552397507e+00
	5.187688644740936e-01
	4.724532680520051e-01
	4.183970718807821e+00
	4.724657776740390e-01
	5.187815022348055e-01
	5.540454898111878e-01
	1.106588136711231e+00
	1.693594184367808e+00
	2.992942265550580e-12
	4.612728179810642e-07
	2.072770574662749e-05
	2.090442217475910e-05
	5.154860475939762e-06
	5.280544992927960e-06
	1.095531910470081e+00
	1.094908297076999e+00
	4.366154485122224e+00
	1.089709346230563e+00
	1.153113016718816e+00
	-4.395214055541468e-03
18		1.128000000000001e-07
	1.153091996390912e+00
	4.366134032766224e+00
	5.000000000000000e+00
	1.089688314631111e+00
	1.094903051383026e+00
	1.693573259582612e+00
	1.095526789761385e+00
	4.961722638001691e-01
	4.974193605498160e-01
	5.187762304183099e-01
	4.724606293890377e-01
	1.106567108160508e+00
	5.525481330277521e-01
	5.540243635810573e-01
	4.183950234250676e+00
	3.111206427339865e+00
	3.110462214390752e+00
	3.649813356793584e+00
	6.135389120658957e-01
	5.995607889207238e-02
	1.294306742891551e+00
	6.809118548926928e-01
	1.242829104544637e+00
	2.111884599515162e-02
	4.392773649522191e+00
	2.374297092219929e-02
	1.089445468539162e-01
	1.089432481104816e-01
	4.392772357339362e+00
	6.097326218094943e-01
	1.290517739434637e+00
	4.999700458334536e+00
	4.366104310939168e+00
	3.110432445871717e+00
	4.999983855400871e+00
	4.999986513778846e+00
	4.183950234245405e+00
	4.183921722237232e+00
	5.539955887333465e-01
	5.525193587538382e-01
	1.089659552335168e+00
	5.187688644746428e-01
	4.724532680539219e-01
	4.183970718811069e+00
	4.724657776759562e-01
	5.187815022353551e-01
	5.540454898081545e-01
	1.106588136713906e+00
	1.693594184370172e+00
	2.992865504036768e-12
	4.612728160094967e-07
	2.072770574770789e-05
	2.090442217523924e-05
	5.154860476128383e-06
	5.280544993035839e-06
	1.095531910471872e+00
	1.094908297078776e+00
	4.366154485121755e+00
	1.089709346168223e+00
	1.153113016720046e+00
	-4.395214055450499e-03
19		1.228000000000001e-07
	1.153091996391967e+00
	4.366134032765771e+00
	5.000000000000000e+00
	1.089688314570582e+00
	1.094903051384624e+00
	1.693573259584800e+00
	1.095526789763026e+00
	4.961722638010763e-01
	4.974193605504507e-01
	5.187762304187998e-01
	4.724606293908553e-01
	1.106567108163226e+00
	5.525481330339748e-01
	5.540243635785711e-01
	4.183950234252915e+00
	3.111206427349074e+00
	3.110462214400075e+00
	3.649813356798339e+00
	6.135389120658820e-01
	5.995607889205738e-02
	1.294306742891534e+00
	6.809118548926855e-01
	1.242829104544636e+00
	2.111884599584313e-02
	4.392773649522296e+00
	2.374297092299882e-02
	1.089445468550657e-01
	1.089432481116314e-01
	4.392772357339466e+00
	6.097326218094812e-01
	1.290517739434619e+00
	4.999700458334536e+00
	4.366104310938716e+00
	3.110432445881042e+00