Title: kicad schematic
Date: Tue Jul 07 13:03:41  2026
Plotname: Transient Analysis
Flags: real
No. Variables: 122
No. Points: 108     
Variables:
	0	time	time
	1	v(vtap)	voltage
	2	v(out)	voltage
	3	v(e_b)	voltage
	4	v(in)	voltage
	5	v(net-_v1-pad1_)	voltage
	6	v(x2.net-_q1-pad1_)	voltage
	7	v(x2.net-_q1-pad2_)	voltage
	8	v(x2.net-_j1-pad3_)	voltage
	9	v(x2.net-_q2-pad3_)	voltage
	10	v(x2.net-_d4-pad1_)	voltage
	11	v(x2.net-_q7-pad3_)	voltage
	12	v(x2.net-_q10-pad1_)	voltage
	13	v(x2.net-_q14-pad1_)	voltage
	14	v(x2.net-_d2-pad1_)	voltage
	15	v(x2.net-_d1-pad2_)	voltage
	16	v(x2.net-_d3-pad1_)	voltage
	17	v(x2.net-_q11-pad1_)	voltage
	18	v(x2.net-_d4-pad2_)	voltage
	19	v(net-_v3-pad1_)	voltage
	20	v(x2.net-_q17-pad1_)	voltage
	21	v(x2.net-_q17-pad2_)	voltage
	22	v(x2.net-_j2-pad3_)	voltage
	23	v(x2.net-_q18-pad3_)	voltage
	24	v(x2.net-_d9-pad1_)	voltage
	25	v(x2.net-_q23-pad3_)	voltage
	26	v(x2.net-_q25-pad3_)	voltage
	27	v(x2.net-_q30-pad1_)	voltage
	28	v(x2.net-_d7-pad1_)	voltage
	29	v(x2.net-_d6-pad2_)	voltage
	30	v(unconnected-_x2-pad6_)	voltage
	31	v(x2.net-_d8-pad1_)	voltage
	32	v(x2.net-_q27-pad1_)	voltage
	33	v(x2.net-_d10-pad2_)	voltage
	34	v(unconnected-_x2-pad7_)	voltage
	35	v(unconnected-_x2-pad8_)	voltage
	36	v(net-_qp1-pad2_)	voltage
	37	v(x1.net-_q1-pad1_)	voltage
	38	v(x1.net-_q1-pad2_)	voltage
	39	v(x1.net-_q14-pad1_)	voltage
	40	v(x1.net-_q3-pad3_)	voltage
	41	v(x1.net-_q11-pad3_)	voltage
	42	v(x1.net-_q11-pad1_)	voltage
	43	v(x1.net-_q2-pad2_)	voltage
	44	v(x1.net-_c1-pad2_)	voltage
	45	v(x1.net-_q10-pad1_)	voltage
	46	v(x1.net-_q15-pad3_)	voltage
	47	v(x1.net-_q16-pad1_)	voltage
	48	v(x1.net-_c1-pad1_)	voltage
	49	v(x1.net-_q24-pad2_)	voltage
	50	v(x1.net-_q23-pad3_)	voltage
	51	v(x1.net-_q28-pad2_)	voltage
	52	v(x1.net-_q28-pad3_)	voltage
	53	v(x1.net-_j1-pad3_)	voltage
	54	v(x1.net-_q30-pad2_)	voltage
	55	v(q.x1.q30#collCX)	voltage
	56	v(q.x1.q29#collCX)	voltage
	57	v(q.x1.q31#collCX)	voltage
	58	v(q.x1.q28#collCX)	voltage
	59	v(q.x1.q27#collCX)	voltage
	60	v(q.x1.q25#collCX)	voltage
	61	v(q.x1.q23#collCX)	voltage
	62	v(q.x1.q24#collCX)	voltage
	63	v(q.x1.q21#collCX)	voltage
	64	v(q.x1.q20#collCX)	voltage
	65	v(q.x1.q17#collCX)	voltage
	66	v(q.x1.q15#collCX)	voltage
	67	v(q.x1.q5#collCX)	voltage
	68	v(q.x1.q9#collCX)	voltage
	69	v(q.x1.q22#collCX)	voltage
	70	v(q.x1.q8#collCX)	voltage
	71	v(q.x1.q6#collCX)	voltage
	72	v(q.x1.q16#collCX)	voltage
	73	v(q.x1.q10#collCX)	voltage
	74	v(q.x1.q7#collCX)	voltage
	75	v(q.x1.q26#collCX)	voltage
	76	v(q.x1.q18#collCX)	voltage
	77	v(q.x1.q13#collCX)	voltage
	78	v(q.x1.q2#collCX)	voltage
	79	v(q.x1.q12#collCX)	voltage
	80	v(q.x1.q3#collCX)	voltage
	81	v(q.x1.q11#collCX)	voltage
	82	v(q.x1.q4#collCX)	voltage
	83	v(q.x1.q19#collCX)	voltage
	84	v(q.x1.q14#collCX)	voltage
	85	v(q.x1.q1#collCX)	voltage
	86	v(qp1#collCX)	voltage
	87	v(q.x2.q32#collCX)	voltage
	88	v(q.x2.q31#collCX)	voltage
	89	v(q.x2.q27#collCX)	voltage
	90	v(q.x2.q19#collCX)	voltage
	91	v(q.x2.q18#collCX)	voltage
	92	v(q.x2.q16#collCX)	voltage
	93	v(q.x2.q15#collCX)	voltage
	94	v(q.x2.q11#collCX)	voltage
	95	v(q.x2.q3#collCX)	voltage
	96	v(q.x2.q2#collCX)	voltage
	97	v(q.x2.q23#collCX)	voltage
	98	v(q.x2.q29#collCX)	voltage
	99	v(q.x2.q28#collCX)	voltage
	100	v(q.x2.q25#collCX)	voltage
	101	v(q.x2.q22#collCX)	voltage
	102	v(q.x2.q30#collCX)	voltage
	103	v(q.x2.q26#collCX)	voltage
	104	v(q.x2.q24#collCX)	voltage
	105	v(q.x2.q21#collCX)	voltage
	106	v(q.x2.q20#collCX)	voltage
	107	v(q.x2.q17#collCX)	voltage
	108	v(q.x2.q7#collCX)	voltage
	109	v(q.x2.q13#collCX)	voltage
	110	v(q.x2.q12#collCX)	voltage
	111	v(q.x2.q9#collCX)	voltage
	112	v(q.x2.q6#collCX)	voltage
	113	v(q.x2.q14#collCX)	voltage
	114	v(q.x2.q10#collCX)	voltage
	115	v(q.x2.q8#collCX)	voltage
	116	v(q.x2.q5#collCX)	voltage
	117	v(q.x2.q4#collCX)	voltage
	118	v(q.x2.q1#collCX)	voltage
	119	i(v3)	current
	120	i(v1)	current
	121	i(v2)	current
Values:
0		0.000000000000000e+00
	2.390250332565435e+00
	5.046046616907325e+00
	5.046043281191664e+00
	1.200000000000000e+01
	2.450250332565435e+00
	1.133960638835370e+01
	1.134039866227623e+01
	1.259743434770344e+00
	6.827212408587422e-01
	2.215536457453427e+00
	1.194921340623784e+01
	2.508935473769400e+00
	7.732524043461444e-03
	3.428937566078478e+00
	3.060863629729951e+00
	6.434205842943118e-05
	6.362352016702687e-01
	1.847038332931310e+00
	1.235000000000000e+00
	1.134412198135219e+01
	1.134479874635672e+01
	1.263646468058520e+00
	6.825135607131277e-01
	1.196909729341440e+01
	1.197552663902982e+01
	1.199356928158671e+01
	6.285524371298251e-01
	1.196909729319061e+01
	1.196827302032004e+01
	1.196785440657268e+01
	2.117817999774732e-04
	2.253293656778727e-01
	1.196827681270828e+01
	1.196785814100911e+01
	3.968638196334206e-03
	1.123201710153968e+01
	1.160258887559165e+00
	1.137104649019263e+01
	1.116570047713424e+00
	1.847523481651054e+00
	2.460162446205915e+00
	2.274609738550644e+00
	5.293808261119013e-01
	4.297820406532866e-03
	6.351793169214497e-01
	8.640688224288058e-02
	5.504345346342422e-01
	1.199349051121406e+01
	1.123217171557310e+01
	1.147954501718961e+01
	6.113576254335975e-01
	5.998039555874876e-02
	1.292586719908216e+00
	6.813740575989538e-01
	6.074841748160696e-01
	1.288730853723759e+00
	1.199969985793585e+01
	1.137101673869744e+01
	1.123198844112296e+01
	1.199999999978179e+01
	1.199999388834178e+01
	1.199349051120129e+01
	1.199349051118969e+01
	5.504094881292929e-01
	8.638302202285372e-02
	1.116546407120329e+00
	5.293697272767560e-01
	4.297676469140623e-03
	1.199349056324468e+01
	4.297820408775213e-03
	5.293899307700434e-01
	5.504530312890757e-01
	6.351978011869813e-01
	2.460180663667210e+00
	8.575476300609448e-12
	1.498255700585663e-06
	1.822432681120754e-05
	1.830460087079780e-05
	1.709166686355225e-12
	9.057659171163323e-06
	2.274609738551250e+00
	1.847532483749477e+00
	1.137106340492319e+01
	1.116588461601819e+00
	1.160277295060450e+00
	5.049844405601160e+00
	3.968638196334206e-03
	6.285524370412150e-01
	2.253293656774054e-01
	1.259566473323450e+00
	1.134402876570536e+01
	5.046043281181556e+00
	7.644949755365742e-03
	6.362352016689793e-01
	1.255631443978495e+00
	1.133952686498427e+01
	1.196909729322480e+01
	8.557670801657835e-12
	2.253293656862704e-01
	2.117818085361325e-04
	8.557668130351692e-12
	6.286047688683067e-01
	1.199356928158680e+01
	1.196909729344842e+01
	6.825658701135070e-01
	1.263698536889290e+00
	1.134416864074139e+01
	3.428946119885198e+00
	8.889354145006495e-06
	6.362962767930662e-01
	6.434206061803330e-05
	8.500288153749170e-06
	7.795139655853957e-03
	2.508996856505672e+00
	2.215545095227814e+00
	6.827835237602400e-01
	1.259805433249947e+00
	1.133966169866837e+01
	1.554783568835649e-07
	7.484196363517770e-08
	-1.847103464167508e-02
1		1.000000000000000e-10
	2.390250332567376e+00
	5.046046617023593e+00
	5.046043281191698e+00
	1.200000000000000e+01
	2.450250332567376e+00
	1.133960638835374e+01
	1.134039866227624e+01
	1.259743434770352e+00
	6.827212408587515e-01
	2.215536457453524e+00
	1.194921340623793e+01
	2.508935473769649e+00
	7.732524043474104e-03
	3.428937566078832e+00
	3.060863629730784e+00
	6.434205860256283e-05
	6.362352016703554e-01
	1.847038332931396e+00
	1.235000000000000e+00
	1.134412198135219e+01
	1.134479874635672e+01
	1.263646468058520e+00
	6.825135607131287e-01
	1.196909729341438e+01
	1.197552663902981e+01
	1.199356928158671e+01
	6.285524371298259e-01
	1.196909729319060e+01
	1.196827302032009e+01
	1.196785440657276e+01
	2.117817999822491e-04
	2.253293656778741e-01
	1.196827681270827e+01
	1.196785814100908e+01
	3.968638196335750e-03
	1.123201710154091e+01
	1.160258887559195e+00
	1.137104649019267e+01
	1.116570047713434e+00
	1.847523481651228e+00
	2.460162446206203e+00
	2.274609738551210e+00
	5.293808261119697e-01
	4.297820406649317e-03
	6.351793169214838e-01
	8.640688224290008e-02
	5.504345346342652e-01
	1.199349051121433e+01
	1.123217171557379e+01
	1.147954501718993e+01
	6.113576254336049e-01
	5.998039555876296e-02
	1.292586719908222e+00
	6.813740575989569e-01
	6.074841748160764e-01
	1.288730853723765e+00
	1.199969985793585e+01
	1.137101673869747e+01
	1.123198844112416e+01
	1.199999999978182e+01
	1.199999388834179e+01
	1.199349051120160e+01
	1.199349051118996e+01
	5.504094881293149e-01
	8.638302202287203e-02
	1.116546407120340e+00
	5.293697272768214e-01
	4.297676469242558e-03
	1.199349056324490e+01
	4.297820408901816e-03
	5.293899307701209e-01
	5.504530312890984e-01
	6.351978011870149e-01
	2.460180663667491e+00
	8.592765388115708e-12
	1.498255701389700e-06
	1.822432681510243e-05
	1.830460087313274e-05
	1.748746980556604e-12
	9.057659177622024e-06
	2.274609738551804e+00
	1.847532483749657e+00
	1.137106340492323e+01
	1.116588461601830e+00
	1.160277295060480e+00
	5.049844405718424e+00
	3.968638196335750e-03
	6.285524370412158e-01
	2.253293656774068e-01
	1.259566473323450e+00
	1.134402876570536e+01
	5.046043281181589e+00
	7.644949755379160e-03
	6.362352016690647e-01
	1.255631443978502e+00
	1.133952686498431e+01
	1.196909729322478e+01
	8.557529382565339e-12
	2.253293656862718e-01
	2.117818085412004e-04
	8.558875830289026e-12
	6.286047688683075e-01
	1.199356928158681e+01
	1.196909729344840e+01
	6.825658701135080e-01
	1.263698536889292e+00
	1.134416864074139e+01
	3.428946119885545e+00
	8.889354148184292e-06
	6.362962767931593e-01
	6.434206080141447e-05
	8.500288197738071e-06
	7.795139655866500e-03
	2.508996856505916e+00
	2.215545095227910e+00
	6.827835237602494e-01
	1.259805433249955e+00
	1.133966169866840e+01
	1.554783745361110e-07
	7.484184839402774e-08
	-1.847103464315474e-02
2		2.000000000000001e-10
	2.390250332569875e+00
	5.046046617126549e+00
	5.046043281191736e+00
	1.200000000000000e+01
	2.450250332569875e+00
	1.133960638835380e+01
	1.134039866227626e+01
	1.259743434770363e+00
	6.827212408587608e-01
	2.215536457453658e+00
	1.194921340623804e+01
	2.508935473770100e+00
	7.732524043500711e-03
	3.428937566079430e+00
	3.060863629732059e+00
	6.434205887906937e-05
	6.362352016704809e-01
	1.847038332931562e+00
	1.235000000000000e+00
	1.134412198135219e+01
	1.134479874635672e+01
	1.263646468058521e+00
	6.825135607131294e-01
	1.196909729341439e+01
	1.197552663902981e+01
	1.199356928158672e+01
	6.285524371298292e-01
	1.196909729319061e+01
	1.196827302032005e+01
	1.196785440657268e+01
	2.117817999832470e-04
	2.253293656778793e-01
	1.196827681270835e+01
	1.196785814100926e+01
	3.968638196338192e-03
	1.123201710154252e+01
	1.160258887559249e+00
	1.137104649019273e+01
	1.116570047713462e+00
	1.847523481651530e+00
	2.460162446206691e+00
	2.274609738552125e+00
	5.293808261120608e-01
	4.297820406824381e-03
	6.351793169215527e-01
	8.640688224294216e-02
	5.504345346343023e-01
	1.199349051121473e+01
	1.123217171557488e+01
	1.147954501719050e+01
	6.113576254336135e-01
	5.998039555877595e-02
	1.292586719908228e+00
	6.813740575989597e-01
	6.074841748160850e-01
	1.288730853723771e+00
	1.199969985793585e+01
	1.137101673869753e+01
	1.123198844112576e+01
	1.199999999978183e+01
	1.199999388834181e+01
	1.199349051120201e+01
	1.199349051119035e+01
	5.504094881293514e-01
	8.638302202291265e-02
	1.116546407120369e+00
	5.293697272769119e-01
	4.297676469408399e-03
	1.199349056324527e+01
	4.297820409087600e-03
	5.293899307702197e-01
	5.504530312891355e-01
	6.351978011870832e-01
	2.460180663667975e+00
	8.594763789560034e-12
	1.498255702590129e-06
	1.822432681960033e-05
	1.830460087513461e-05
	1.780596503575538e-12
	9.057659181341271e-06
	2.274609738552714e+00
	1.847532483749962e+00
	1.137106340492329e+01
	1.116588461601857e+00
	1.160277295060534e+00
	5.049844405821429e+00
	3.968638196338192e-03
	6.285524370412191e-01
	2.253293656774118e-01
	1.259566473323451e+00
	1.134402876570536e+01
	5.046043281181627e+00
	7.644949755407204e-03
	6.362352016691913e-01
	1.255631443978512e+00
	1.133952686498437e+01
	1.196909729322480e+01
	8.559971873219548e-12
	2.253293656862774e-01
	2.117818085420886e-04
	8.556905184420316e-12
	6.286047688683108e-01
	1.199356928158681e+01
	1.196909729344841e+01
	6.825658701135087e-01
	1.263698536889292e+00
	1.134416864074139e+01
	3.428946119886137e+00
	8.889354150688256e-06
	6.362962767932907e-01
	6.434206109018348e-05
	8.500288227727970e-06
	7.795139655893062e-03
	2.508996856506362e+00
	2.215545095228043e+00
	6.827835237602587e-01
	1.259805433249965e+00
	1.133966169866847e+01
	1.554784017504529e-07
	7.484175331036458e-08
	-1.847103464315824e-02
3		4.000000000000002e-10
	2.390250332575608e+00
	5.046046617308148e+00
	5.046043281191836e+00
	1.200000000000000e+01
	2.450250332575608e+00
	1.133960638835390e+01
	1.134039866227630e+01
	1.259743434770379e+00
	6.827212408587683e-01
	2.215536457453928e+00
	1.194921340623820e+01
	2.508935473771296e+00
	7.732524043578839e-03
	3.428937566080834e+00
	3.060863629735228e+00
	6.434205954902823e-05
	6.362352016707526e-01
	1.847038332932031e+00
	1.235000000000000e+00
	1.134412198135219e+01
	1.134479874635672e+01
	1.263646468058521e+00
	6.825135607131290e-01
	1.196909729341438e+01
	1.197552663902981e+01
	1.199356928158671e+01
	6.285524371298330e-01
	1.196909729319061e+01
	1.196827302032009e+01
	1.196785440657276e+01
	2.117817999829686e-04
	2.253293656778811e-01
	1.196827681270835e+01
	1.196785814100924e+01
	3.968638196342078e-03
	1.123201710154598e+01
	1.160258887559399e+00
	1.137104649019289e+01
	1.116570047713550e+00
	1.847523481652335e+00
	2.460162446208003e+00
	2.274609738554462e+00
	5.293808261122755e-01
	4.297820407262285e-03
	6.351793169217532e-01
	8.640688224306448e-02
	5.504345346343917e-01
	1.199349051121570e+01
	1.123217171557743e+01
	1.147954501719193e+01
	6.113576254336313e-01
	5.998039555880670e-02
	1.292586719908241e+00
	6.813740575989675e-01
	6.074841748161023e-01
	1.288730853723785e+00
	1.199969985793585e+01
	1.137101673869769e+01
	1.123198844112921e+01
	1.199999999978185e+01
	1.199999388834182e+01
	1.199349051120297e+01
	1.199349051119131e+01
	5.504094881294408e-01
	8.638302202303248e-02
	1.116546407120458e+00
	5.293697272771265e-01
	4.297676469832663e-03
	1.199349056324617e+01
	4.297820409545849e-03
	5.293899307704465e-01
	5.504530312892251e-01
	6.351978011872830e-01
	2.460180663669278e+00
	8.592210276603396e-12
	1.498255704557305e-06
	1.822432682835109e-05
	1.830460087871855e-05
	1.831618190450968e-12
	9.057659185296441e-06
	2.274609738555050e+00
	1.847532483750772e+00
	1.137106340492345e+01
	1.116588461601945e+00
	1.160277295060683e+00
	5.049844406003107e+00
	3.968638196342078e-03
	6.285524370412231e-01
	2.253293656774140e-01
	1.259566473323451e+00
	1.134402876570536e+01
	5.046043281181727e+00
	7.644949755489461e-03
	6.362352016694686e-01
	1.255631443978528e+00
	1.133952686498447e+01
	1.196909729322479e+01
	8.556252626086503e-12
	2.253293656862789e-01
	2.117818085416445e-04
	8.559292163923260e-12
	6.286047688683145e-01
	1.199356928158680e+01
	1.196909729344840e+01
	6.825658701135082e-01
	1.263698536889293e+00
	1.134416864074139e+01
	3.428946119887534e+00
	8.889354153850549e-06
	6.362962767935721e-01
	6.434206178362878e-05
	8.500288273899370e-06
	7.795139655970749e-03
	2.508996856507550e+00
	2.215545095228312e+00
	6.827835237602666e-01
	1.259805433249982e+00
	1.133966169866857e+01
	1.554784660601216e-07
	7.484158534402929e-08
	-1.847103464325586e-02
4		8.000000000000003e-10
	2.390250332590146e+00
	5.046046617558831e+00
	5.046043281192254e+00
	1.200000000000000e+01
	2.450250332590146e+00
	1.133960638835416e+01
	1.134039866227638e+01
	1.259743434770392e+00
	6.827212408587778e-01
	2.215536457454709e+00
	1.194921340623852e+01
	2.508935473774928e+00
	7.732524043840920e-03
	3.428937566084727e+00
	3.060863629744137e+00
	6.434206129818234e-05
	6.362352016713044e-01
	1.847038332933588e+00
	1.235000000000000e+00
	1.134412198135219e+01
	1.134479874635672e+01
	1.263646468058520e+00
	6.825135607131275e-01
	1.196909729341440e+01
	1.197552663902981e+01
	1.199356928158672e+01
	6.285524371298378e-01
	1.196909729319059e+01
	1.196827302032009e+01
	1.196785440657275e+01
	2.117817999843180e-04
	2.253293656778878e-01
	1.196827681270837e+01
	1.196785814100931e+01
	3.968638196345187e-03
	1.123201710155232e+01
	1.160258887559850e+00
	1.137104649019335e+01
	1.116570047713820e+00
	1.847523481654719e+00
	2.460162446211883e+00
	2.274609738560948e+00
	5.293808261127766e-01
	4.297820408354206e-03
	6.351793169223726e-01
	8.640688224343578e-02
	5.504345346345929e-01
	1.199349051121767e+01
	1.123217171558281e+01
	1.147954501719513e+01
	6.113576254336607e-01
	5.998039555884593e-02
	1.292586719908266e+00
	6.813740575989773e-01
	6.074841748161309e-01
	1.288730853723810e+00
	1.199969985793585e+01
	1.137101673869815e+01
	1.123198844113556e+01
	1.199999999978184e+01
	1.199999388834181e+01
	1.199349051120493e+01
	1.199349051119329e+01
	5.504094881296430e-01
	8.638302202340212e-02
	1.116546407120730e+00
	5.293697272776298e-01
	4.297676470919507e-03
	1.199349056324813e+01
	4.297820410665044e-03
	5.293899307709574e-01
	5.504530312894270e-01
	6.351978011879020e-01
	2.460180663673152e+00
	8.581788057959727e-12
	1.498255705256399e-06
	1.822432683754154e-05
	1.830460088128247e-05
	1.887455469695709e-12
	9.057659182559047e-06
	2.274609738561545e+00
	1.847532483753153e+00
	1.137106340492391e+01
	1.116588461602215e+00
	1.160277295061134e+00
	5.049844406253899e+00
	3.968638196345187e-03
	6.285524370412278e-01
	2.253293656774202e-01
	1.259566473323450e+00
	1.134402876570536e+01
	5.046043281182145e+00
	7.644949755759203e-03
	6.362352016700312e-01
	1.255631443978540e+00
	1.133952686498472e+01
	1.196909729322477e+01
	8.559767438546145e-12
	2.253293656862861e-01
	2.117818085429768e-04
	8.556433339634850e-12
	6.286047688683195e-01
	1.199356928158681e+01
	1.196909729344842e+01
	6.825658701135067e-01
	1.263698536889291e+00
	1.134416864074139e+01
	3.428946119891418e+00
	8.889354153918745e-06
	6.362962767941358e-01
	6.434206356736860e-05
	8.500288328126826e-06
	7.795139656232089e-03
	2.508996856511173e+00
	2.215545095229091e+00
	6.827835237602764e-01
	1.259805433249995e+00
	1.133966169866882e+01
	1.554786012436526e-07
	7.484136145020914e-08
	-1.847103464332854e-02
5		1.600000000000001e-09
	2.390250332624696e+00
	5.046046617812708e+00
	5.046043281193513e+00
	1.200000000000000e+01
	2.450250332624696e+00
	1.133960638835473e+01
	1.134039866227658e+01
	1.259743434770368e+00
	6.827212408587611e-01
	2.215536457456863e+00
	1.194921340623916e+01
	2.508935473784113e+00
	7.732524044495364e-03
	3.428937566094576e+00
	3.060863629766492e+00
	6.434206536980708e-05
	6.362352016722391e-01
	1.847038332937665e+00
	1.235000000000000e+00
	1.134412198135218e+01
	1.134479874635671e+01
	1.263646468058521e+00
	6.825135607131285e-01
	1.196909729341441e+01
	1.197552663902982e+01
	1.199356928158674e+01
	6.285524371298311e-01
	1.196909729319060e+01
	1.196827302031999e+01
	1.196785440657253e+01
	2.117817999787895e-04
	2.253293656778934e-01
	1.196827681270850e+01
	1.196785814100954e+01
	3.968638196341079e-03
	1.123201710155967e+01
	1.160258887560853e+00
	1.137104649019419e+01
	1.116570047714337e+00
	1.847523481660648e+00
	2.460162446221509e+00
	2.274609738576613e+00
	5.293808261138091e-01
	4.297820410593769e-03
	6.351793169237416e-01
	8.640688224420780e-02
	5.504345346348869e-01
	1.199349051121986e+01
	1.123217171559003e+01
	1.147954501719924e+01
	6.113576254336578e-01
	5.998039555883497e-02
	1.292586719908273e+00
	6.813740575989795e-01
	6.074841748161277e-01
	1.288730853723817e+00
	1.199969985793585e+01
	1.137101673869900e+01
	1.123198844114294e+01
	1.199999999978181e+01
	1.199999388834178e+01
	1.199349051120711e+01
	1.199349051119548e+01
	5.504094881299378e-01
	8.638302202417429e-02
	1.116546407121249e+00
	5.293697272786632e-01
	4.297676473159174e-03
	1.199349056325036e+01
	4.297820412924967e-03
	5.293899307719943e-01
	5.504530312897215e-01
	6.351978011892710e-01
	2.460180663682772e+00
	8.577027976741647e-12
	1.498255702838194e-06
	1.822432683919118e-05
	1.830460088077766e-05
	1.930688248164003e-12
	9.057659176166591e-06
	2.274609738577217e+00
	1.847532483759076e+00
	1.137106340492476e+01
	1.116588461602733e+00
	1.160277295062138e+00
	5.049844406507876e+00
	3.968638196341079e-03
	6.285524370412211e-01
	2.253293656774263e-01
	1.259566473323451e+00
	1.134402876570535e+01
	5.046043281183403e+00
	7.644949756418599e-03
	6.362352016709749e-01
	1.255631443978515e+00
	1.133952686498530e+01
	1.196909729322478e+01
	8.556884904263012e-12
	2.253293656862912e-01
	2.117818085372036e-04
	8.557869690672959e-12
	6.286047688683126e-01
	1.199356928158683e+01
	1.196909729344844e+01
	6.825658701135076e-01
	1.263698536889292e+00
	1.134416864074138e+01
	3.428946119901260e+00
	8.889354148294989e-06
	6.362962767950814e-01
	6.434206766547934e-05
	8.500288367555356e-06
	7.795139656885847e-03
	2.508996856520350e+00
	2.215545095231243e+00
	6.827835237602590e-01
	1.259805433249970e+00
	1.133966169866940e+01
	1.554787494584264e-07
	7.484117463436857e-08
	-1.847103464340639e-02
6		3.200000000000001e-09
	2.390250332696369e+00
	5.046046617963334e+00
	5.046043281196151e+00
	1.200000000000000e+01
	2.450250332696369e+00
	1.133960638835586e+01
	1.134039866227696e+01
	1.259743434770308e+00
	6.827212408586991e-01
	2.215536457461563e+00
	1.194921340624027e+01
	2.508935473802447e+00
	7.732524045699592e-03
	3.428937566116478e+00
	3.060863629813909e+00
	6.434207374745392e-05
	6.362352016737971e-01
	1.847038332945862e+00
	1.235000000000000e+00
	1.134412198135217e+01
	1.134479874635670e+01
	1.263646468058511e+00
	6.825135607131229e-01
	1.196909729341446e+01
	1.197552663902983e+01
	1.199356928158667e+01
	6.285524371298226e-01
	1.196909729319059e+01
	1.196827302031993e+01
	1.196785440657243e+01
	2.117817999631126e-04
	2.253293656778786e-01
	1.196827681270837e+01
	1.196785814100932e+01
	3.968638196332641e-03
	1.123201710156428e+01
	1.160258887562630e+00
	1.137104649019526e+01
	1.116570047714927e+00
	1.847523481672831e+00
	2.460162446241294e+00
	2.274609738608995e+00
	5.293808261157416e-01
	4.297820414754727e-03
	6.351793169261807e-01
	8.640688224548138e-02
	5.504345346351607e-01
	1.199349051122114e+01
	1.123217171559611e+01
	1.147954501720231e+01
	6.113576254336073e-01
	5.998039555876965e-02
	1.292586719908235e+00
	6.813740575989613e-01
	6.074841748160773e-01
	1.288730853723778e+00
	1.199969985793585e+01
	1.137101673870007e+01
	1.123198844114757e+01
	1.199999999978180e+01
	1.199999388834178e+01
	1.199349051120838e+01
	1.199349051119677e+01
	5.504094881302107e-01
	8.638302202544647e-02
	1.116546407121838e+00
	5.293697272805953e-01
	4.297676477322826e-03
	1.199349056325173e+01
	4.297820417083878e-03
	5.293899307739252e-01
	5.504530312899935e-01
	6.351978011917084e-01
	2.460180663702556e+00
	8.575827548096271e-12
	1.498255701046659e-06
	1.822432683568462e-05
	1.830460087962884e-05
	1.925296727600667e-12
	9.057659176119753e-06
	2.274609738609603e+00
	1.847532483771256e+00
	1.137106340492583e+01
	1.116588461603321e+00
	1.160277295063912e+00
	5.049844406658510e+00
	3.968638196332641e-03
	6.285524370412122e-01
	2.253293656774112e-01
	1.259566473323442e+00
	1.134402876570535e+01
	5.046043281186040e+00
	7.644949757622581e-03
	6.362352016725334e-01
	1.255631443978459e+00
	1.133952686498643e+01
	1.196909729322478e+01
	8.558127914556342e-12
	2.253293656862761e-01
	2.117818085216605e-04
	8.556991920594115e-12
	6.286047688683043e-01
	1.199356928158676e+01
	1.196909729344848e+01
	6.825658701135020e-01
	1.263698536889282e+00
	1.134416864074138e+01
	3.428946119923160e+00
	8.889354147854044e-06
	6.362962767966567e-01
	6.434207604266717e-05
	8.500288354879731e-06
	7.795139658087313e-03
	2.508996856538687e+00
	2.215545095235945e+00
	6.827835237601940e-01
	1.259805433249907e+00
	1.133966169867053e+01
	1.554787565499760e-07
	7.484117317026195e-08
	-1.847103464333126e-02
7		6.400000000000003e-09
	2.390250332816426e+00
	5.046046618010145e+00
	5.046043281201157e+00
	1.200000000000000e+01
	2.450250332816426e+00
	1.133960638835771e+01
	1.134039866227762e+01
	1.259743434770520e+00
	6.827212408585900e-01
	2.215536457468919e+00
	1.194921340624199e+01
	2.508935473828358e+00
	7.732524047296897e-03
	3.428937566157924e+00
	3.060863629893161e+00
	6.434208759525214e-05
	6.362352016760001e-01
	1.847038332957258e+00
	1.235000000000000e+00
	1.134412198135220e+01
	1.134479874635669e+01
	1.263646468058524e+00
	6.825135607131301e-01
	1.196909729341455e+01
	1.197552663902985e+01
	1.199356928158672e+01
	6.285524371298266e-01
	1.196909729319064e+01
	1.196827302032004e+01
	1.196785440657262e+01
	2.117817999847072e-04
	2.253293656778985e-01
	1.196827681270854e+01
	1.196785814100965e+01
	3.968638196334640e-03
	1.123201710156572e+01
	1.160258887565344e+00
	1.137104649019617e+01
	1.116570047715314e+00
	1.847523481692435e+00
	2.460162446273276e+00
	2.274609738662482e+00
	5.293808261188624e-01
	4.297820421324127e-03
	6.351793169300045e-01
	8.640688224745552e-02
	5.504345346353446e-01
	1.199349051122199e+01
	1.123217171559915e+01
	1.147954501720390e+01
	6.113576254335931e-01
	5.998039555874538e-02
	1.292586719908211e+00
	6.813740575989577e-01
	6.074841748160645e-01
	1.288730853723753e+00
	1.199969985793585e+01
	1.137101673870098e+01
	1.123198844114900e+01
	1.199999999978179e+01
	1.199999388834178e+01
	1.199349051120922e+01
	1.199349051119762e+01
	5.504094881303944e-01
	8.638302202742160e-02
	1.116546407122222e+00
	5.293697272837143e-01
	4.297676483902076e-03
	1.199349056325261e+01
	4.297820423628424e-03
	5.293899307770382e-01
	5.504530312901760e-01
	6.351978011955315e-01
	2.460180663734547e+00
	8.576268167859169e-12
	1.498255700905279e-06
	1.822432682545600e-05
	1.830460087696723e-05
	1.865861631866750e-12
	9.057659183938369e-06
	2.274609738663089e+00
	1.847532483790865e+00
	1.137106340492674e+01
	1.116588461603707e+00
	1.160277295066626e+00
	5.049844406705208e+00
	3.968638196334640e-03
	6.285524370412165e-01
	2.253293656774314e-01
	1.259566473323454e+00
	1.134402876570537e+01
	5.046043281191046e+00
	7.644949759217111e-03
	6.362352016747299e-01
	1.255631443978686e+00
	1.133952686498828e+01
	1.196909729322482e+01
	8.557519246863612e-12
	2.253293656862966e-01
	2.117818085436429e-04
	8.558631234278913e-12
	6.286047688683080e-01
	1.199356928158681e+01
	1.196909729344857e+01
	6.825658701135092e-01
	1.263698536889295e+00
	1.134416864074140e+01
	3.428946119964612e+00
	8.889354152249291e-06
	6.362962767988837e-01
	6.434208985983680e-05
	8.500288281640140e-06
	7.795139659680674e-03
	2.508996856564607e+00
	2.215545095243302e+00
	6.827835237600801e-01
	1.259805433250114e+00
	1.133966169867237e+01
	1.554785991897401e-07
	7.484138053043266e-08
	-1.847103464321143e-02
8		1.280000000000001e-08
	2.390250332967150e+00
	5.046046618049073e+00
	5.046043281209473e+00
	1.200000000000000e+01
	2.450250332967150e+00
	1.133960638835983e+01
	1.134039866227853e+01
	1.259743434771887e+00
	6.827212408584513e-01
	2.215536457475828e+00
	1.194921340624380e+01
	2.508935473845659e+00
	7.732524048171111e-03
	3.428937566224294e+00
	3.060863629990885e+00
	6.434210454558599e-05
	6.362352016778667e-01
	1.847038332964008e+00
	1.235000000000000e+00
	1.134412198135237e+01
	1.134479874635674e+01
	1.263646468058535e+00
	6.825135607131253e-01
	1.196909729341476e+01
	1.197552663903004e+01
	1.199356928158686e+01
	6.285524371298168e-01
	1.196909729319103e+01
	1.196827302031995e+01
	1.196785440657217e+01
	2.117817999773235e-04
	2.253293656779408e-01
	1.196827681270896e+01
	1.196785814101039e+01
	3.968638196329199e-03
	1.123201710156689e+01
	1.160258887568543e+00
	1.137104649019694e+01
	1.116570047714776e+00
	1.847523481714333e+00
	2.460162446309589e+00
	2.274609738727201e+00
	5.293808261228200e-01
	4.297820428942710e-03
	6.351793169346931e-01
	8.640688225002116e-02
	5.504345346352807e-01
	1.199349051122257e+01
	1.123217171560021e+01
	1.147954501720452e+01
	6.113576254335976e-01
	5.998039555875061e-02
	1.292586719908220e+00
	6.813740575989570e-01
	6.074841748160691e-01
	1.288730853723763e+00
	1.199969985793585e+01
	1.137101673870174e+01
	1.123198844115017e+01
	1.199999999978179e+01
	1.199999388834178e+01
	1.199349051120980e+01
	1.199349051119820e+01
	5.504094881303304e-01
	8.638302202998929e-02
	1.116546407121681e+00
	5.293697272876705e-01
	4.297676491532699e-03
	1.199349056325318e+01
	4.297820431213761e-03
	5.293899307809851e-01
	5.504530312901115e-01
	6.351978012002206e-01
	2.460180663770872e+00
	8.575119780918072e-12
	1.498255700099066e-06
	1.822432681267984e-05
	1.830460087307584e-05
	1.786740894127448e-12
	9.057659192363487e-06
	2.274609738727809e+00
	1.847532483812769e+00
	1.137106340492750e+01
	1.116588461603169e+00
	1.160277295069825e+00
	5.049844406743972e+00
	3.968638196329199e-03
	6.285524370412067e-01
	2.253293656774733e-01
	1.259566473323465e+00
	1.134402876570554e+01
	5.046043281199362e+00
	7.644949760089940e-03
	6.362352016765872e-01
	1.255631443980075e+00
	1.133952686499039e+01
	1.196909729322521e+01
	8.558401835939683e-12
	2.253293656863385e-01
	2.117818085356493e-04
	8.556392573633165e-12
	6.286047688682983e-01
	1.199356928158695e+01
	1.196909729344878e+01
	6.825658701135044e-01
	1.263698536889305e+00
	1.134416864074157e+01
	3.428946120030990e+00
	8.889354155992824e-06
	6.362962768007641e-01
	6.434210677119800e-05
	8.500288185555975e-06
	7.795139660549413e-03
	2.508996856581917e+00
	2.215545095250213e+00
	6.827835237599350e-01
	1.259805433251475e+00
	1.133966169867449e+01
	1.554784142682175e-07
	7.484166491232569e-08
	-1.847103464302227e-02
9		2.280000000000001e-08
	2.390250333070628e+00
	5.046046618073321e+00
	5.046043281219837e+00
	1.200000000000000e+01
	2.450250333070628e+00
	1.133960638836076e+01
	1.134039866227925e+01
	1.259743434774433e+00
	6.827212408583825e-01
	2.215536457474936e+00
	1.194921340624426e+01
	2.508935473832086e+00
	7.732524046937376e-03
	3.428937566297086e+00
	3.060863630057444e+00
	6.434211589647157e-05
	6.362352016777235e-01
	1.847038332956178e+00
	1.235000000000000e+00
	1.134412198135236e+01
	1.134479874635672e+01
	1.263646468058584e+00
	6.825135607131139e-01
	1.196909729341473e+01
	1.197552663903006e+01
	1.199356928158675e+01
	6.285524371297820e-01
	1.196909729319141e+01
	1.196827302031909e+01
	1.196785440657019e+01
	2.117817999063983e-04
	2.253293656779654e-01
	1.196827681270918e+01
	1.196785814101091e+01