Title: kicad schematic
Date: Wed Jan 14 20:07:57  2026
Plotname: Transient Analysis
Flags: real
No. Variables: 50
No. Points: 1008    
Variables:
	0	time	time
	1	v(vin)	voltage
	2	v(vout)	voltage
	3	v(x1.net-_d1-pad2_)	voltage
	4	v(x1.net-_q1-pad1_)	voltage
	5	v(x1.net-_q5-pad3_)	voltage
	6	v(x1.net-_q10-pad3_)	voltage
	7	v(x1.net-_q10-pad2_)	voltage
	8	v(x1.net-_q10-pad1_)	voltage
	9	v(x1.net-_q14-pad1_)	voltage
	10	v(x1.net-_q9-pad2_)	voltage
	11	v(x1.net-_q11-pad1_)	voltage
	12	v(x1.net-_q11-pad2_)	voltage
	13	v(x1.net-_q11-pad3_)	voltage
	14	v(x1.net-_q7-pad2_)	voltage
	15	v(x1.net-_q3-pad1_)	voltage
	16	v(x1.net-_q3-pad2_)	voltage
	17	v(x1.net-_q1-pad3_)	voltage
	18	v(x1.net-_q2-pad2_)	voltage
	19	v(x1.net-_q6-pad3_)	voltage
	20	v(x1.net-_q2-pad3_)	voltage
	21	v(x1.net-_d2-pad1_)	voltage
	22	v(x1.net-_d2-pad2_)	voltage
	23	v(x1.net-_q16-pad3_)	voltage
	24	v(v0ut)	voltage
	25	v(x1.net-_q17-pad3_)	voltage
	26	v(x1.net-_q12-pad3_)	voltage
	27	v(x1.net-_c1-pad2_)	voltage
	28	v(x1.net-_q12-pad1_)	voltage
	29	v(x1.net-_c1-pad1_)	voltage
	30	v(x1.net-_q8-pad3_)	voltage
	31	v(q.x1.q4#collCX)	voltage
	32	v(q.x1.q8#collCX)	voltage
	33	v(q.x1.q12#collCX)	voltage
	34	v(q.x1.q15#collCX)	voltage
	35	v(q.x1.q13#collCX)	voltage
	36	v(q.x1.q17#collCX)	voltage
	37	v(q.x1.q14#collCX)	voltage
	38	v(q.x1.q16#collCX)	voltage
	39	v(q.x1.q7#collCX)	voltage
	40	v(q.x1.q2#collCX)	voltage
	41	v(q.x1.q6#collCX)	voltage
	42	v(q.x1.q1#collCX)	voltage
	43	v(q.x1.q3#collCX)	voltage
	44	v(q.x1.q11#collCX)	voltage
	45	v(q.x1.q9#collCX)	voltage
	46	v(q.x1.q10#collCX)	voltage
	47	v(q.x1.q5#collCX)	voltage
	48	i(vv1)	current
	49	i(vv2)	current
Values:
0		0.000000000000000e+00
	1.000000000000000e+01
	5.000000000000000e+00
	9.985925194932301e+00
	9.346097395657644e+00
	9.839702060423924e+00
	9.838136385638226e+00
	9.101711088396762e+00
	6.744745226144033e-01
	3.975982525557375e-03
	6.472844349263560e-01
	2.661513904726081e+00
	2.014759903021714e-06
	4.582636756583201e-02
	4.582636788965791e-02
	1.252669932008035e+00
	6.555625799685650e-01
	9.317720061623360e+00
	4.537502603021730e+00
	2.518809810143022e+00
	3.880726069635912e+00
	2.716519772738494e-06
	9.999974950003022e+00
	2.116823227377457e-06
	2.114817807447253e-06
	2.115318811503693e-06
	8.615914476649205e-10
	3.553295909835145e-10
	6.582322046306176e-01
	4.582619231170110e-02
	4.186104234191350e-02
	3.880568583549843e+00
	4.582619230490299e-02
	6.582322046292596e-01
	6.728708163569522e-01
	3.553295909835145e-10
	9.999999999979982e+00
	3.975982525547047e-03
	9.999999999979982e+00
	2.518809810138027e+00
	9.100101300311463e+00
	9.101711088377336e+00
	9.344789590448961e+00
	1.251210953256167e+00
	2.661513904720752e+00
	3.975982515575093e-03
	6.756269792171602e-01
	9.102852053924051e+00
	-4.670171343768459e-03
	0.000000000000000e+00
1		1.000000000000001e-06
	1.000062831852038e+01
	5.000314159260191e+00
	9.986546834430291e+00
	9.346708501333186e+00
	9.840313995253519e+00
	9.838748169254606e+00
	9.102320369371940e+00
	6.744790234861426e-01
	3.976474701095153e-03
	6.472963277365964e-01
	2.661712009658433e+00
	2.517604088365678e-06
	4.587703222221065e-02
	4.588350794565832e-02
	1.252672915874314e+00
	6.555653722390010e-01
	9.318336385865077e+00
	4.537787095480296e+00
	2.518985790173689e+00
	3.881008093269659e+00
	2.917933895657514e-06
	1.000059666326353e+01
	2.528115232899821e-06
	2.157899529420640e-06
	2.158534067087210e-06
	2.916416133476219e-07
	2.118526524200766e-06
	6.582349040807993e-01
	4.582875549356351e-02
	4.186342115713455e-02
	3.880850604151961e+00
	4.582875360133400e-02
	6.582349040786264e-01
	6.728751512937167e-01
	2.118513173880732e-06
	1.000062831665300e+01
	3.976474698964268e-03
	1.000062831665300e+01
	2.518985789641186e+00
	9.100710420324273e+00
	9.102320367964619e+00
	9.345400661698811e+00
	1.251213780896111e+00
	2.661712008792719e+00
	3.976472848062266e-03
	6.756315993764147e-01
	9.103461451391187e+00
	-5.298924621275347e-03
	0.000000000000000e+00
2		2.000000000000001e-06
	1.000125663697875e+01
	5.000628318489376e+00
	9.987168808656213e+00
	9.347318172497349e+00
	9.840926716271657e+00
	9.839360759776204e+00
	9.102930563269737e+00
	6.744829487198842e-01
	3.976558258810860e-03
	6.473096482318519e-01
	2.661900096600667e+00
	2.436319427727055e-06
	4.590607329025462e-02
	4.590983501502588e-02
	1.252675961294302e+00
	6.555681315019598e-01
	9.318952432448313e+00
	4.538070711396496e+00
	2.519148475832204e+00
	3.881289283035662e+00
	2.958014535317522e-06
	1.000122491066588e+01
	2.567766834129311e-06
	2.195882495775533e-06
	2.196517088003230e-06
	3.020823590975330e-07
	3.840455383461010e-06
	6.582374399210729e-01
	4.583089421388906e-02
	4.186546312928494e-02
	3.881131791610014e+00
	4.583089145215652e-02
	6.582374399173488e-01
	6.728789205443674e-01
	3.840442879717021e-06
	1.000125663511027e+01
	3.976558258483567e-03
	1.000125663511016e+01
	2.519148475221813e+00
	9.101320457682984e+00
	9.102930561825520e+00
	9.346010295568387e+00
	1.251216671808346e+00
	2.661900095775947e+00
	3.976556401545337e-03
	6.756356366347746e-01
	9.104071756323897e+00
	-5.299338559350275e-03
	0.000000000000000e+00
3		4.000000000000002e-06
	1.000251327346141e+01
	5.001256636730703e+00
	9.988412866400175e+00
	9.348537013243172e+00
	9.842152149203113e+00
	9.840585931812626e+00
	9.104150941129664e+00
	6.744908266179550e-01
	3.976599761514837e-03
	6.473368136773274e-01
	2.662268500758913e+00
	2.360759544740116e-06
	4.593818906921879e-02
	4.593858580285137e-02
	1.252682136362304e+00
	6.555736508594923e-01
	9.320184424998009e+00
	4.538638154026746e+00
	2.519463545928054e+00
	3.881851870666993e+00
	3.027308668076110e-06
	1.000248154575364e+01
	2.636698696970775e-06
	2.265320924781912e-06
	2.265955379116672e-06
	2.580069755017818e-07
	6.929297328425101e-06
	6.582425118600530e-01
	4.583474602698454e-02
	4.186921345434343e-02
	3.881694374108807e+00
	4.583474236321813e-02
	6.582425118537917e-01
	6.728864864341123e-01
	6.929286943034574e-06
	1.000251327159300e+01
	3.976599762024090e-03
	1.000251327159256e+01
	2.519463545257276e+00
	9.102540522300353e+00
	9.104150939659332e+00
	9.347229060722736e+00
	1.251222537783619e+00
	2.662268499968466e+00
	3.976597900611861e-03
	6.756437386219285e-01
	9.105292356302817e+00
	-5.300166184420974e-03
	0.000000000000000e+00
4		8.000000000000005e-06
	1.000502654295401e+01
	5.002513271477004e+00
	9.990901034668516e+00
	9.350974437569530e+00
	9.844602969379624e+00
	9.843036230156766e+00
	9.106591647264842e+00
	6.745065816652982e-01
	3.976607621005222e-03
	6.473914089598484e-01
	2.662989306655445e+00
	2.466723945846467e-06
	4.594664786058149e-02
	4.594679118625766e-02
	1.252694652378479e+00
	6.555846855159470e-01
	9.322648347235964e+00
	4.539773157418570e+00
	2.520072466462862e+00
	3.882977159317087e+00
	3.149523030812341e-06
	1.000499481695909e+01
	2.759160604295242e-06
	2.387451160105080e-06
	2.388085705185454e-06
	2.297737752215135e-07
	1.238575325216996e-05
	6.582526597105200e-01
	4.584153819228769e-02
	4.187599872225435e-02
	3.882819651460871e+00
	4.584153447430371e-02
	6.582526597040682e-01
	6.729016170409453e-01
	1.238574360191980e-05
	1.000502654108572e+01
	3.976607620892319e-03
	1.000502654108553e+01
	2.520072465790189e+00
	9.104980601475663e+00
	9.106591645793850e+00
	9.349666333358762e+00
	1.251234435644808e+00
	2.662989305866233e+00
	3.976605762977793e-03
	6.756599421488094e-01
	9.107733506976498e+00
	-5.301821788721739e-03
	0.000000000000000e+00
5		1.600000000000001e-05
	1.001005305415764e+01
	5.005026527078819e+00
	9.995877259416259e+00
	9.355849639895718e+00
	9.849504589360562e+00
	9.847936806534562e+00
	9.111473052116470e+00
	6.745380742894724e-01
	3.976678829537304e-03
	6.475001446818220e-01
	2.664429781705099e+00
	2.687495200712870e-06
	4.595951364856496e-02
	4.595977923444777e-02
	1.252719678383116e+00
	6.556067386771484e-01
	9.327576197564531e+00
	4.542042916120469e+00
	2.521288857711653e+00
	3.885227501506603e+00
	3.376211269277804e-06
	1.001002132730850e+01
	2.985583895463895e-06
	2.614211737757167e-06
	2.614846200810165e-06
	2.504057730406405e-07
	2.325176960805035e-05
	6.582729424799615e-01
	4.585504540725757e-02
	4.188950688610907e-02
	3.885069970989137e+00
	4.585504171036942e-02
	6.582729424736041e-01
	6.729318608558298e-01
	2.325175944931090e-05
	1.001005305228967e+01
	3.976678829913016e-03
	1.001005305228928e+01
	2.521288857038809e+00
	9.109860752481033e+00
	9.111473050645483e+00
	9.354541233067195e+00
	1.251258225465416e+00
	2.664429780916066e+00
	3.976676969672689e-03
	6.756923316791488e-01
	9.112615800852744e+00
	-5.305129888036220e-03
	0.000000000000000e+00
6		3.200000000000002e-05
	1.002010585431346e+01
	5.010052927156731e+00
	1.000582938926229e+01
	9.365600278887333e+00
	9.859307635475705e+00
	9.857737765694726e+00
	9.121235719502895e+00
	6.746010059255951e-01
	3.976773524455916e-03
	6.477169461734054e-01
	2.667311001112563e+00
	3.059544796441672e-06
	4.598687846962133e-02
	4.598704923738900e-02
	1.252769657637820e+00
	6.556507858359569e-01
	9.337431605745083e+00
	4.546581939765407e+00
	2.523722254401537e+00
	3.889727743741143e+00
	3.770836779565659e-06
	1.002007413016985e+01
	3.380335828311008e-06
	3.008807087951639e-06
	3.009441598367845e-06
	2.316271249556023e-07
	4.496997406057150e-05
	6.583134565552207e-01
	4.588205726290791e-02
	4.191651446728272e-02
	3.889570167976672e+00
	4.588205355448773e-02
	6.583134565488051e-01
	6.729922951565852e-01
	4.496996436811895e-05
	1.002010585244609e+01
	3.976773524332971e-03
	1.002010585244590e+01
	2.523722253729490e+00
	9.119620912460501e+00
	9.121235718032660e+00
	9.364291267736482e+00
	1.251305732557969e+00
	2.667311000323497e+00
	3.976771667400980e-03
	6.757570569243372e-01
	9.122380246085942e+00
	-5.311734723861150e-03
	0.000000000000000e+00
7		6.400000000000004e-05
	1.004020967665092e+01
	5.020104838325458e+00
	1.002573128830511e+01
	9.385102544008950e+00
	9.878912091767159e+00
	9.877338049283937e+00
	9.140759628240103e+00
	6.747266345527123e-01
	3.977007686471822e-03
	6.481468851352765e-01
	2.673072293391821e+00
	3.633383793585045e-06
	4.604031490468991e-02
	4.604057141636683e-02
	1.252869340547250e+00
	6.557386360260690e-01
	9.357140573207998e+00
	4.555657160029318e+00
	2.528588660375885e+00
	3.898725611393927e+00
	4.369927514187008e-06
	1.004017795413364e+01
	3.979038071257784e-06
	3.608006252325782e-06
	3.608640649987271e-06
	2.482284063539189e-07
	8.829636072727830e-05
	6.583942750601872e-01
	4.593593089024392e-02
	4.197038391099269e-02
	3.898567945293423e+00
	4.593592719634906e-02
	6.583942750538517e-01
	6.731129305220880e-01
	8.829635064365460e-05
	1.004020967478494e+01
	3.977007686740447e-03
	1.004020967478460e+01
	2.528588659703361e+00
	9.139139807816020e+00
	9.140759626770331e+00
	9.383792329743667e+00
	1.251400472441960e+00
	2.673072292603713e+00
	3.977005829110944e-03
	6.758862717531273e-01
	9.141907709506311e+00
	-5.324897131288253e-03
	0.000000000000000e+00
8		1.280000000000001e-04
	1.008040309872591e+01
	5.040201549362953e+00
	1.006551884737415e+01
	9.424103024244395e+00
	9.918107508325793e+00
	9.916525126690441e+00
	9.179794808302326e+00
	6.749769335512070e-01
	3.977435908195084e-03
	6.489931978726245e-01
	2.684589753868274e+00
	4.297466677416337e-06
	4.614761245668924e-02
	4.614778687616093e-02
	1.253067568059874e+00
	6.559133431835144e-01
	9.396544033694646e+00
	4.573793722329686e+00
	2.538320149927624e+00
	3.916708326950611e+00
	5.070751967118390e-06
	1.008037138566383e+01
	4.679611016705837e-06
	4.308963439138679e-06
	4.309597748837528e-06
	2.297706143355652e-07
	1.745256930990221e-04
	6.585550543654535e-01
	4.604316392505496e-02
	4.207760505755754e-02
	3.916550480939653e+00
	4.604316022947098e-02
	6.585550543591012e-01
	6.733532502265733e-01
	1.745256834916747e-04
	1.008040309686319e+01
	3.977435907967933e-03
	1.008040309686305e+01
	2.538320149256771e+00
	9.178164968427714e+00
	9.179794806835169e+00
	9.422790424095432e+00
	1.251588820501119e+00
	2.684589753081153e+00
	3.977434056323159e-03
	6.761437379501292e-01
	9.180949993763697e+00
	-5.351029668050344e-03
	0.000000000000000e+00
9		2.280000000000001e-04
	1.014313415732284e+01
	5.071567078661418e+00
	1.012761079108011e+01
	9.484997814299572e+00
	9.979281904119047e+00
	9.977686515995984e+00
	9.240721219760260e+00
	6.753652957956007e-01
	3.978143652540662e-03
	6.502794436056499e-01
	2.702562257143621e+00
	4.699502597467528e-06
	4.631294057440082e-02
	4.631319269874213e-02
	1.253374157880228e+00
	6.561835726048142e-01
	9.458041167478521e+00
	4.602080686593287e+00
	2.553513437182005e+00
	3.944757284991018e+00
	5.489996879916324e-06
	1.014310246084672e+01
	5.097769531496530e-06
	4.728676067746422e-06
	4.729309965368804e-06
	2.437877152610089e-07
	3.080633491069746e-04
	6.588038887086662e-01
	4.620921758888463e-02
	4.224364343701899e-02
	3.944599159953816e+00
	4.620921391799035e-02
	6.588038887024349e-01
	6.737260469322367e-01
	3.080633392047172e-04
	1.014313415546677e+01
	3.978143652705078e-03
	1.014313415546647e+01
	2.553513436512051e+00
	9.239075751863435e+00
	9.240721218297175e+00
	9.483681541613525e+00
	1.251879999160239e+00
	2.702562256359732e+00
	3.978141805652544e-03
	6.765432794359396e-01
	9.241887486162351e+00
	-5.391288863453525e-03
	0.000000000000000e+00
10		3.280000000000002e-04
	1.020572395978728e+01
	5.102861979893642e+00
	1.018955640858035e+01
	9.545784825167061e+00
	1.004031963642644e+01
	1.003871128142655e+01
	9.301514024092537e+00
	6.757500727368324e-01
	3.978830835864803e-03
	6.515230639106053e-01
	2.720491379733000e+00
	4.789162586314573e-06
	4.647682207002894e-02
	4.647699353066054e-02
	1.253676740618491e+00
	6.564502952482070e-01
	9.519398962360556e+00
	4.630281944687525e+00
	2.568679755401760e+00
	3.972723576781467e+00
	5.587743653135890e-06
	1.020569228998513e+01
	5.194589166815552e-06
	4.826983676256037e-06
	4.827617129551422e-06
	2.245675261367395e-07
	4.400642818237228e-04
	6.590496680618888e-01
	4.637336765372754e-02
	4.240777666822278e-02
	3.972565175471310e+00
	4.637336399283462e-02
	6.590496680556722e-01
	6.740953041466005e-01
	4.400642724365009e-04
	1.020572395793979e+01
	3.978830835593756e-03
	1.020572395793967e+01
	2.568679754735183e+00
	9.299852974343068e+00
	9.301514022635965e+00
	9.544464946897822e+00
	1.252167214422668e+00
	2.720491378952308e+00
	3.978828999534594e-03
	6.769392026735195e-01
	9.302691338746797e+00
	-5.430750022302533e-03
	0.000000000000000e+00
11		4.280000000000002e-04
	1.026811073754078e+01
	5.134055368770388e+00
	1.025129491965559e+01
	9.606402453359419e+00
	1.010116038706569e+01
	1.009953911728941e+01
	9.362113065072814e+00
	6.761309707855645e-01
	3.979545384783368e-03
	6.527251233009149e-01
	2.738359780991653e+00
	4.804864250032472e-06
	4.663804795917278e-02
	4.663829338710949e-02
	1.253975128863381e+00
	6.567133424937827e-01
	9.580557349685785e+00
	4.658371134609673e+00
	2.583804454334937e+00
	4.000580991910056e+00
	5.601546350839403e-06
	1.026807909725139e+01
	5.206903039300201e-06
	4.841571219456973e-06
	4.842203996546968e-06
	2.378727656609555e-07
	5.704341455792896e-04
	6.592922294499066e-01
	4.653548082584963e-02
	4.256987553700433e-02
	4.000422317263391e+00
	4.653547719544637e-02
	6.592922294438146e-01
	6.744607427870142e-01
	5.704341359205264e-04
	1.026811073570344e+01
	3.979545384931544e-03
	1.026811073570315e+01
	2.583804453670448e+00
	9.360436494203318e+00
	9.362113063622983e+00
	9.605079036791055e+00
	1.252450293332344e+00
	2.738359780215674e+00
	3.979543556830127e-03
	6.773312036545556e-01
	9.363301384966533e+00
	-5.469517486844211e-03
	0.000000000000000e+00
12		5.280000000000003e-04
	1.033023292236572e+01
	5.165116461182858e+00
	1.031276582703775e+01
	9.666788911985385e+00
	1.016174403373929e+01
	1.016010991371250e+01
	9.422458375392921e+00
	6.765077109456428e-01
	3.980239735161395e-03
	6.538870805207505e-01
	2.756150664265355e+00
	4.792590806232630e-06
	4.679756023958302e-02
	4.679772731975805e-02
	1.254269139430657e+00
	6.569725550063608e-01
	9.641456311385577e+00
	4.686322135205188e+00
	2.598873571184212e+00
	4.028303553786037e+00
	5.592207208198878e-06
	1.033020132154175e+01
	5.196244742303011e-06
	4.833103975643649e-06
	4.833736049478555e-06
	2.187214457799443e-07
	6.990871390104857e-04
	6.595314168514904e-01
	4.669546630893697e-02
	4.272984535796157e-02
	4.028144608957408e+00
	4.669546269575361e-02
	6.595314168454208e-01
	6.748220983241382e-01
	6.990871298697549e-04
	1.033023292054042e+01
	3.980239734889916e-03
	1.033023292054031e+01
	2.598873570524358e+00
	9.420766358648169e+00
	9.422458373952269e+00
	9.665462023964624e+00
	1.252729067035048e+00
	2.756150663493981e+00
	3.980237921162950e-03
	6.777189929951574e-01
	9.423657647220191e+00
	-5.507412260740807e-03
	0.000000000000000e+00
13		6.280000000000003e-04
	1.039202920716579e+01
	5.196014603582893e+00
	1.037390879918032e+01
	9.726883088970663e+00
	1.022201071393230e+01
	1.022036382053316e+01
	9.482490241561777e+00
	6.768800138371489e-01
	3.980956916764142e-03
	6.550099366239521e-01
	2.773846899229487e+00
	4.778368188542082e-06
	4.695424430305707e-02
	4.695448240577713e-02
	1.254558601231274e+00
	6.572277786405433e-01
	9.702036122308650e+00
	4.714108702813795e+00
	2.613872628650249e+00
	4.055865157537395e+00
	5.574764766649678e-06
	1.039199764853340e+01
	5.176934885947761e-06
	4.816749928529370e-06
	4.817381073338210e-06
	2.313501127263428e-07
	8.259364627457256e-04
	6.597670802320780e-01
	4.685320057402349e-02
	4.288756633556241e-02
	4.055705945854982e+00
	4.685319699714959e-02
	6.597670802261359e-01
	6.751791058265385e-01
	8.259364533554914e-04
	1.039202920535407e+01
	3.980956916907800e-03
	1.039202920535380e+01
	2.613872627993651e+00
	9.480782868690822e+00
	9.482490240130458e+00
	9.725552796734274e+00
	1.253003378847492e+00
	2.773846898464250e+00
	3.980955114585211e-03
	6.781022809384993e-01
	9.483700401733893e+00
	-5.544540087347727e-03
	0.000000000000000e+00
14		7.280000000000003e-04
	1.045343860646864e+01
	5.226719303234321e+00
	1.043466389743856e+01
	9.786623852019259e+00
	1.028190088062857e+01
	1.028024130300206e+01
	9.542149259236194e+00
	6.772476141339752e-01
	3.981653918095040e-03
	6.560950345004131e-01
	2.791431949363664e+00
	4.754771538434465e-06
	4.710897004526805e-02
	4.710913206762657e-02
	1.254843346984205e+00
	6.574788677125994e-01
	9.762237230919672e+00
	4.741704861028218e+00
	2.628787854875556e+00
	4.083239959160135e+00
	5.553478908032441e-06
	1.045340709985823e+01
	5.153952786258822e-06
	4.796639248609283e-06
	4.797269437714237e-06
	2.122780096697815e-07
	9.509017071732502e-04
	6.599990758998210e-01
	4.700859916790182e-02
	4.304295044993107e-02
	4.083080484158013e+00
	4.700859561529212e-02
	6.599990758939085e-01
	6.755315143601051e-01
	9.509016983034746e-04
	1.045343860467235e+01
	3.981653917825941e-03
	1.045343860467224e+01
	2.628787854224812e+00
	9.540426634424753e+00
	9.542149257816636e+00
	9.785290222510360e+00
	1.253273075753875e+00
	2.791431948604393e+00
	3.981652133220622e-03
	6.784807918247111e-01
	9.543370233924366e+00
	-5.580723428794343e-03
	0.000000000000000e+00
15		8.280000000000004e-04
	1.051440051661122e+01
	5.257200258305611e+00
	1.049497147479420e+01
	9.845950830672740e+00
	1.034135536314759e+01
	1.033968320260756e+01
	9.601376394543937e+00
	6.776102464020397e-01
	3.982369641378173e-03
	6.571432954772982e-01
	2.808889032316256e+00
	4.733750949164480e-06
	4.726070819693270e-02
	4.726093855425936e-02
	1.255123220863996e+00
	6.577256816105911e-01
	9.822000505583151e+00
	4.769084587812301e+00
	2.643605060854816e+00
	4.110402063360639e+00
	5.529057321268114e-06
	1.051436906462349e+01
	5.127297626347884e-06
	4.773603298508090e-06
	4.774232311018851e-06
	2.242636944256714e-07
	1.073903211389932e-03
	6.602272660490122e-01
	4.716154780486557e-02
	4.319588683732752e-02
	4.110242328737135e+00
	4.716154429428759e-02
	6.602272660432302e-01
	6.758790728231648e-01
	1.073903202291428e-03
	1.051440051483185e+01
	3.982369641518639e-03
	1.051440051483158e+01
	2.643605060208464e+00
	9.599638636365233e+00
	9.601376393136228e+00
	9.844613931300863e+00
	1.253538016226645e+00
	2.808889031564499e+00
	3.982367871683166e-03
	6.788542499264115e-01
	9.602608099719131e+00
	-5.616069578602279e-03
	0.000000000000000e+00
16		9.280000000000004e-04
	1.057485477554823e+01
	5.287427387774117e+00
	1.055477238890526e+01
	9.904803782153735e+00
	1.040031542402025e+01
	1.039863079394190e+01
	9.660113040922006e+00
	6.779676589420660e-01
	3.983064945739388e-03
	6.581559499811805e-01
	2.826201961688297e+00
	4.704802899716552e-06
	4.741026239643513e-02
	4.741041877741362e-02
	1.255398070627268e+00
	6.579680875724977e-01
	9.881267113382831e+00
	4.796222166504835e+00
	2.658310750209180e+00
	4.137325874306745e+00
	5.502096837395766e-06
	1.057482338787228e+01
	5.098276504398349e-06
	4.748114601559014e-06
	4.748742411470873e-06
	2.052810071453346e-07
	1.194865835239607e-03
	6.604515187712584e-01
	4.731196823233990e-02
	4.334629397388622e-02
	4.137165883954118e+00
	4.731196475285420e-02
	6.604515187655122e-01
	6.762215437694721e-01
	1.194865826663428e-03
	1.057485477378757e+01
	3.983064945472895e-03
	1.057485477378747e+01
	2.658310749569861e+00
	9.658360282246125e+00
	9.660113039528548e+00
	9.903463680166947e+00
	1.253798062158159e+00
	2.826201960943820e+00
	3.983063196609990e-03
	6.792223933105817e-01
	9.661355382413888e+00
	-5.650402613817107e-03
	0.000000000000000e+00
17		1.028000000000000e-03
	1.063474172222484e+01
	5.317370861112418e+00
	1.061400791190197e+01
	9.963123318371935e+00
	1.045872281755301e+01
	1.045702584325150e+01
	9.718301077944293e+00
	6.783196000557439e-01
	3.983775201615945e-03
	6.591338336630649e-01
	2.843354372626273e+00
	4.678623728012038e-06
	4.755668188684535e-02
	4.755690412156890e-02
	1.255667754726582e+00
	6.582059576504643e-01
	9.939978764035239e+00
	4.823091904665940e+00
	2.672891085179216e+00
	4.163985814965454e+00
	5.472402661438781e-06
	1.063471040131566e+01
	5.065995167248399e-06
	4.720096503155783e-06
	4.720722894569661e-06
	2.166557631052543e-07
	1.313716688256882e-03
	6.606717078192629e-01
	4.745975493902196e-02
	4.349406948647431e-02
	4.163825572930977e+00
	4.745975150716143e-02
	6.606717078136498e-01
	6.765586896568095e-01
	1.313716679471548e-03
	1.063474172048433e+01
	3.983775201753827e-03
	1.063474172048407e+01
	2.672891084545386e+00
	9.716533465851517e+00
	9.718301076565105e+00
	9.961780081564230e+00
	1.254053086130088e+00
	2.843354371890634e+00
	3.983773470926092e-03
	6.795849601124566e-01
	9.719553951507708e+00
	-5.683831525219674e-03
	0.000000000000000e+00
18		1.128000000000001e-03
	1.069400225545490e+01
	5.347001127727450e+00
	1.067261993173567e+01
	1.002085032016434e+01
	1.051651984706994e+01
	1.051481066567112e+01
	9.775882928723908e+00
	6.786658315007230e-01
	3.984464605992214e-03
	6.600780649010179e-01
	2.860330494860681e+00
	4.644850213684636e-06
	4.770070974999017e-02
	4.770085995543728e-02
	1.255932134974920e+00
	6.584391711730376e-01
	9.998077589718195e+00
	4.849668456245513e+00
	2.687332902622613e+00
	4.190356649226914e+00
	5.440321142545260e-06
	1.069397101084005e+01
	5.031501932546525e-06
	4.689775872818350e-06
	4.690400820987432e-06
	1.977723081825323e-07
	1.430385715047246e-03
	6.608877124222515e-01
	4.760483565342410e-02
	4.363913810187036e-02
	4.190196159740171e+00
	4.760483225925036e-02
	6.608877124166801e-01
	6.768902862950281e-01
	1.430385706785567e-03
	1.069400225373629e+01
	3.984464605728410e-03
	1.069400225373619e+01
	2.687332901996948e+00
	9.774100624389540e+00
	9.775882927361373e+00
	1.001950401629376e+01
	1.254302963899146e+00
	2.860330494133587e+00
	3.984462899028830e-03
	6.799417020003655e-01
	9.777146220115215e+00
	-5.716182151369154e-03
	0.000000000000000e+00
19		1.228000000000001e-03
	1.075257789224674e+01
	5.376288946123369e+00
	1.073055087147303e+01
	1.007792661521711e+01
	1.057364942121305e+01
	1.057192818150933e+01
	9.832801616294006e+00
	6.790061151187530e-01
	3.985165490775810e-03
	6.609893933240671e-01
	2.877114446366344e+00
	4.613778433349493e-06
	4.784146757851539e-02
	4.784168134463924e-02
	1.256191083144039e+00
	6.586676120134046e-01
	1.005550638524139e+01
	4.875926567617248e+00
	2.701622775360285e+00
	4.216413228236387e+00
	5.405619644463906e-06
	1.075254672621561e+01
	4.993873045732562e-06
	4.657033140761556e-06
	4.657656434985011e-06
	2.085666914823750e-07
	1.544806437250189e-03
	6.610994172307625e-01
	4.774711317952947e-02
	4.378140550322296e-02
	4.216252495672886e+00
	4.774710983842105e-02
	6.610994172253263e-01
	6.772161094445844e-01
	1.544806428797785e-03
	1.075257789055142e+01
	3.985165490911632e-03
	1.075257789055116e+01
	2.701622774741166e+00
	9.831004794865015e+00
	9.832801614948066e+00
	1.007657731266305e+01
	1.254547581135803e+00
	2.877114445649357e+00
	3.985163805403240e-03
	6.802923708202785e-01
	9.834075201363641e+00
	-5.747565322705483e-03
	0.000000000000000e+00
20		1.328000000000001e-03
	1.081041082551876e+01
	5.405205412759378e+00
	1.078774387981957e+01
	1.013429443534983e+01
	1.063005511117022e+01
	1.062832197347006e+01
	9.889000821161359e+00
	6.793402259511652e-01
	3.985844947662284e-03
	6.618688296916077e-01
	2.893690923301213e+00
	4.575366810648427e-06
	4.797964305633048e-02
	4.797978659619036e-02
	1.256444474147534e+00
	6.588911707813180e-01
	1.011220848938886e+01
	4.901841374188347e+00
	2.715747916955552e+00
	4.242130787132099e+00
	5.368614963568244e-06
	1.081037974741790e+01
	4.954119624412534e-06
	4.622070021773576e-06
	4.622691639122994e-06
	1.897918472594161e-07
	1.656913687787424e-03
	6.613067119684980e-01
	4.788652099179344e-02
	4.392080240945798e-02
	4.241969816038363e+00
	4.788651769471837e-02
	6.613067119631088e-01
	6.775359479364356e-01
	1.656913679859491e-03
	1.081041082384840e+01
	3.985844947401268e-03
	1.081041082384831e+01
	2.715747916345684e+00
	9.887189671615879e+00
	9.889000819834369e+00
	1.013294220256950e+01
	1.254786826442891e+00
	2.893690922593982e+00
	3.985843289067810e-03
	6.806367317129457e-01
	9.890284565948054e+00
	-5.777808779644289e-03
	0.000000000000000e+00
21		1.428000000000001e-03
	1.086744398114807e+01
	5.433721990574037e+00
	1.084414275851639e+01
	1.018989705052943e+01
	1.068568120465758e+01
	1.068393634061940e+01
	9.944424935214121e+00
	6.796679391837870e-01
	3.986532681104121e-03
	6.627170406694836e-01
	2.910044578337790e+00
	4.539590781367328e-06
	4.811442450008330e-02
	4.811462948090155e-02
	1.256692192144724e+00
	6.591097423537796e-01
	1.016812802032427e+01
	4.927388169781767e+00
	2.729695354148758e+00
	4.267484714563768e+00
	5.329090856634143e-06
	1.086741299308230e+01
	4.911342008145199e-06
	4.584778680960570e-06
	4.585398416152079e-06
	2.000349470749416e-07
	1.766647045732359e-03
	6.615094915304337e-01
	4.802296975835073e-02
	4.405724213124097e-02
	4.267323509623328e+00
	4.802296651960644e-02
	6.615094915251813e-01
	6.778495905770557e-01
	1.766647037631047e-03
	1.086744397950402e+01
	3.986532681238364e-03
	1.086744397950378e+01
	2.729695353546447e+00
	9.942599660202552e+00
	9.944424933905950e+00
	1.018854195666819e+01
	1.255020597586784e+00
	2.910044577641876e+00
	3.986531047134841e-03
	6.809745500826360e-01
	9.945718696062764e+00
	-5.807025327740689e-03
	0.000000000000000e+00
22		1.528000000000001e-03
	1.092362107429578e+01
	5.461810537147890e+00
	1.089969214280159e+01
	1.024467826440003e+01
	1.074047276276784e+01
	1.073871635522894e+01
	9.999019119032365e+00
	6.799890429677760e-01
	3.987198306539582e-03
	6.635349360527323e-01
	2.926160628092860e+00
	4.496718233944944e-06
	4.824644888865139e-02
	4.824658531433287e-02
	1.256934124221638e+00
	6.593232278358578e-01
	1.022320975877532e+01
	4.952542680566357e+00
	2.743452724048824e+00
	4.292450826893032e+00
	5.287349929995185e-06
	1.092359018541211e+01
	4.866530035223064e-06
	4.545350673812151e-06
	4.545968506256074e-06
	1.813776075561957e-07
	1.873946026889811e-03
	6.617076554997283e-01
	4.815639845198542e-02
	4.419066111081302e-02
	4.292289392949472e+00
	4.815639526335928e-02
	6.617076554945278e-01
	6.781568389836830e-01
	1.873946019313295e-03
	1.092362107267965e+01
	3.987198306281465e-03
	1.092362107267957e+01
	2.743452723456798e+00
	9.997179934711266e+00
	9.999019117745336e+00
	1.024332037878024e+01
	1.255248795026638e+00
	2.926160627407857e+00
	3.987196702282603e-03
	6.813056044124224e-01
	1.000032274270633e+01
	-5.835044742006801e-03
	0.000000000000000e+00
23		1.628000000000001e-03
	1.097888666495328e+01
	5.489443332476640e+00
	1.095433743567001e+01
	1.029858300885578e+01
	1.079437567157563e+01
	1.079260791436497e+01
	1.005272935328895e+01
	6.803033256381212e-01
	3.987869245976852e-03
	6.643231045095290e-01
	2.942024295310375e+00
	4.456430943741159e-06
	4.837496602262690e-02
	4.837516192923338e-02
	1.257170166024036e+00
	6.595315323193403e-01
	1.027739937792328e+01
	4.977280854542805e+00
	2.757007530151031e+00
	4.317005157680046e+00
	5.243194003938971e-06
	1.097885587715387e+01
	4.818809251370974e-06
	4.503691935052767e-06