Title: kicad schematic
Date: Fri Dec 19 14:57:28  2025
Plotname: Transient Analysis
Flags: real
No. Variables: 27
No. Points: 0       
Variables:
